12
Properties=species:S:1:pos:R:3:molID:I:1:momenta:R:3:forces:R:3 Nmols=1 Comp=DMC(1) energy=-589.5958862304688 stress="inf inf inf inf inf inf inf inf inf" free_energy=-589.5958862304688 pbc="F F F"
C       -0.06354920       0.02615914       0.03273994        0       0.13882300       0.43962871       0.19738501      -1.27827895      -1.81336272      -2.54666424
O       -1.09745824      -0.56171083      -0.33384407        0      -0.58522758       0.61458649      -0.02138874       1.53481507       1.17183769       3.21392608
O        0.59339279       0.04178514       1.16893291        0      -0.77587923       0.48894011       0.57765479      -0.65384269       0.34307170       0.41240799
O        0.70731479       0.58054012      -0.92796504        0      -0.07095099       0.02442497      -0.74082999      -0.45635462      -0.57243848      -0.26200986
C       -0.18480919      -0.38314587       2.27627182        0       0.79228148      -0.34830687       0.18236845      -0.49760872       1.14222336       1.31649399
C        0.11790480       0.31317315      -2.18905210        0       0.48407086      -0.75237752       0.19453695      -1.64204323       1.43546379      -1.85678935
H        0.50081283      -0.52887988       3.16355896        0      -0.08318524      -0.04794673      -0.08410742      -0.87621796      -0.12489828      -1.22392583
H       -0.99130619       0.37122315       2.57026887        0       0.12576119      -0.24374813      -0.31009156       1.19224215      -0.27279061      -0.26026422
H       -0.79898220      -1.19689691       1.93909299        0       0.03306702      -0.28324052      -0.08280513       0.10732855      -1.08025086       0.26405919
H        0.82173383       0.39293513      -3.04121518        0      -0.03057296       0.31617996       0.17044549      -0.22254741      -0.27709207       0.89524025
H       -0.51975018      -0.63449883      -2.23208618        0      -0.17100511      -0.04540181       0.10832286       1.57450557       1.15733635      -0.03905377
H       -0.68493521       1.15580308      -2.35394812        0       0.14281756      -0.16273867      -0.19149073       1.21800256      -1.10909951       0.08657995
12
Properties=species:S:1:pos:R:3:molID:I:1:momenta:R:3:forces:R:3 Nmols=1 Comp=DMC(1) energy=-589.802978515625 stress="-inf -inf inf -inf inf -inf inf -inf -inf" free_energy=-589.802978515625 pbc="F F F"
C       -0.07733832       0.03838987      -0.03232905        0       0.24561288       0.45963586      -0.97342471       2.87980199       0.53255880       1.86772931
O       -1.08665124      -0.49366056      -0.25215404        0       0.39240021       0.68826552       2.47212871      -3.61766028      -1.56807208       0.50947952
O        0.55098492       0.08788235       1.17588019        0      -0.67608973       0.86329122      -0.82904746      -0.39527702      -0.19819272      -0.56091976
O        0.68924637       0.56700949      -0.95977978        0      -0.86298711       0.13227816      -0.37048523       0.34947288       0.48940575      -0.01259995
C       -0.17410353      -0.45803200       2.27604289        0      -0.10446970      -0.57030667      -0.05202034       0.40291098       2.05241919       1.43721581
C        0.13175951       0.30048306      -2.21332797        0       0.53698684      -0.01558036      -1.00201493       0.18900746       0.07355638      -2.59784985
H        0.58863560      -0.59695116       3.11686159        0       0.10607659       0.01345163       0.06134135      -0.88737577       0.92960995      -0.79584366
H       -1.03657612       0.30384362       2.50833620        0      -0.10998100      -0.28263500       0.09241368       1.44852459      -1.52092350      -0.04042185
H       -0.50663934      -1.45618996       2.19003147        0       0.27917364      -0.34312048       0.35665064      -0.81678629      -0.95974171      -0.84605944
H        0.97160243       0.33640578      -2.98644138        0       0.01738984      -0.41833099       0.17053195      -1.07190049      -0.19420181       0.98937374
H       -0.34726487      -0.73940968      -2.19454597        0       0.25276733      -0.39333231       0.02436515       0.67941141       1.50475514      -0.49723855
H       -0.62619978       1.10517472      -2.52592676        0      -0.07687980      -0.13361656       0.04956117       0.83986998      -1.14117348       0.54713547
12
Properties=species:S:1:pos:R:3:molID:I:1:momenta:R:3:forces:R:3 Nmols=1 Comp=DMC(1) energy=-589.7962646484375 stress="inf -inf -inf -inf inf -inf -inf -inf inf" free_energy=-589.7962646484375 pbc="F F F"
C       -0.02908142       0.07579657      -0.01238004        0      -0.32201881      -0.78694250       1.00641514      -3.30113721      -1.86758304      -0.87216711
O       -1.12242892      -0.47616861      -0.12741352        0      -1.09411514       0.61440552       1.12212133       0.79361677       0.74599886      -0.83545220
O        0.50581647       0.13065406       1.13921749        0      -0.72826466       0.85167208       0.36721388       1.48669624       0.65853381       2.86412764
O        0.68788684       0.57310239      -1.00320862        0       0.53072274       0.45087806      -0.62192025      -0.18905222       0.44280672      -0.09874272
C       -0.15595227      -0.50491866       2.28040640        0       0.95927525      -0.65372111      -0.38607510      -0.28144330       2.90205932       0.89926696
C        0.15604912       0.24976121      -2.28109464        0       1.00807110      -0.58735515      -0.74329678       0.48739195      -0.22990078      -1.22405887
H        0.55536052      -0.27776001       3.11219385        0       0.13404139       0.30519112       0.04648625      -0.49152726      -0.53885996      -0.71788049
H       -1.16254968       0.02192311       2.63273217        0      -0.40844392      -0.25172719      -0.00590441       1.74079597      -0.86973047      -1.17579007
H       -0.30095892      -1.52422053       2.06523791        0       0.11782142       0.05003038      -0.43150184      -0.19086808      -1.20974040      -0.02212238
H        1.06432917       0.19790218      -2.97288783        0       0.08263664       0.38031430      -0.09817737      -1.31663108       0.60904062       0.60487127
H       -0.19926363      -0.79627745      -2.24005290        0      -0.30579962      -0.28176782      -0.00289614      -0.32436180       0.31742018      -0.08851159
H       -0.69500783       0.95138890      -2.63699587        0       0.02607359      -0.09097768      -0.25246471       1.58652043      -0.96004474       0.66645914
12
Properties=species:S:1:pos:R:3:molID:I:1:momenta:R:3:forces:R:3 Nmols=1 Comp=DMC(1) energy=-589.6682739257812 stress="inf inf -inf inf inf -inf -inf -inf inf" free_energy=-589.6682739257812 pbc="F F F"
C       -0.11865562       0.02197591       0.02800066        0      -0.54041225       0.27728557      -0.26673068       2.99397159       2.15026450      -0.43076855
O       -1.19269735      -0.43296674      -0.10505600        0      -1.34182114       0.48598616       0.16328892      -1.29748368      -0.68045402      -0.53845543
O        0.51691378       0.19665110       1.21405893        0       0.97635616       1.20039810       1.23345899       0.27174115       0.36698568      -1.74900329
O        0.68086123       0.58780997      -1.02536816        0      -0.91296106      -0.52949008       0.02564225      -1.60141993      -2.17193770       1.34102964
C       -0.07380528      -0.53417099       2.26454325        0       1.10884256      -1.23146494      -0.83882698      -1.26874089       1.11034226      -0.61305141
C        0.22408026       0.16187841      -2.32558614        0       0.77190578       0.09476328      -0.26388405       0.31548411       3.74020004      -0.79872751
H        0.51049843      -0.24220162       3.13402116        0      -0.00063540      -0.12957469       0.26271339      -0.57198107      -0.48569581      -0.07111084
H       -1.16728073      -0.26518423       2.22724409        0      -0.49658718       0.01273510      -0.27528610       0.68426216       0.22005349       1.00457740
H       -0.11135495      -1.54173314       1.93140091        0       0.27492334      -0.04612484       0.26443258       0.61702651      -1.46859193       0.53659678
H        1.06657121       0.46023164      -3.07066131        0       0.19417827      -0.02022172      -0.27166866      -1.12069285      -1.26982737       1.21090674
H       -0.22566480      -0.82033662      -2.36046738        0       0.14642313      -0.36233184      -0.15172132       0.43518007      -0.14224857      -0.04902387
H       -0.56226827       0.97351306      -2.59521519        0      -0.18021221       0.24803992       0.11858167       0.54265267      -1.36908996       0.15703019
12
Properties=species:S:1:pos:R:3:molID:I:1:momenta:R:3:forces:R:3 Nmols=1 Comp=DMC(1) energy=-589.7242431640625 stress="inf -inf inf -inf -inf -inf inf -inf inf" free_energy=-589.7242431640625 pbc="F F F"
C       -0.10967790       0.07384734       0.00102579        0      -0.17387872       0.43382305      -0.38743678      -2.42830706      -0.86659527       1.04787004
O       -1.24361528      -0.38447554      -0.13632372        0      -0.05041431       1.09195689      -0.60599790       2.18053675       0.65744877       0.82354295
O        0.53787811       0.23251292       1.24216649        0      -0.05861004       0.10730066      -0.45604696      -0.92991602      -0.59703040      -1.63804793
O        0.59108550       0.52694690      -0.98902973        0      -1.54484125      -1.06591097       1.01355703       2.15086722       1.28560293       0.28109646
C       -0.00771598      -0.62612716       2.23042449        0       1.07583971      -1.26055320       0.38673043       0.17209518       0.62487268       0.36837411
C        0.27065775       0.24216045      -2.33279883        0       0.56403579       0.59262210       0.15472665       0.33981824      -0.16821361      -0.48198986
H        0.29615218      -0.45122938       3.23589806        0       0.01140475       0.04646884       0.29447320       1.22523403       0.95282763       0.77741772
H       -1.04606436      -0.47317609       2.34274823        0      -0.35903790      -0.10414379       0.18281481      -1.63690102       0.00675473      -0.60086280
H        0.25758946      -1.63552149       2.08855998        0       0.30354403       0.13457530      -0.03432588       0.19451281      -1.34415090      -0.85259092
H        1.12153230       0.30753853      -3.06554928        0       0.39656590       0.18519858      -0.12300635      -0.57366306       1.08372343       0.87199420
H        0.13981312      -0.80081632      -2.37581132        0       0.30197548      -0.22947934       0.07529938      -0.88883740      -1.78424621      -0.12497810
H       -0.63835724       0.78450448      -2.57963072        0      -0.46658344       0.06814189      -0.50078764       0.19456017       0.14900634      -0.47182554
12
Properties=species:S:1:pos:R:3:molID:I:1:momenta:R:3:forces:R:3 Nmols=1 Comp=DMC(1) energy=-589.4747314453125 stress="-inf -inf inf -inf -inf inf inf inf -inf" free_energy=-589.4747314453125 pbc="F F F"
C       -0.16260930       0.07958788       0.01147916        0      -0.08861386      -0.08643711       0.83113735       1.97536850       0.73343766       1.33086157
O       -1.24283997      -0.32514341      -0.12214958        0      -0.92810292      -0.08624528       0.54364518      -3.44131827      -1.52328539       0.12291589
O        0.50959783       0.23341379       1.19401407        0      -0.69457629       0.61460901      -0.75779520      -0.61000109       0.00710940       0.27366471
O        0.55772201       0.51821272      -0.97025990        0       0.14732504       0.29493892      -0.48950937       0.97520995       0.58630836       0.20886064
C        0.05288771      -0.66864089       2.27980419        0       0.38743372      -0.82013470       0.13466901       1.04650915      -0.40249789      -4.45517206
C        0.29382967       0.21049047      -2.34080139        0       0.84044175      -0.71554591       0.44871553       2.75498867       2.69687128       1.51156843
H        0.48705515      -0.41667474       3.17134948        0       0.29910379       0.19650966      -0.11957463       0.73105812       0.73080730       1.77772498
H       -0.98863303      -0.75307656       2.20913645        0       0.26860585      -0.41121928      -0.17627289      -1.52583730       0.19597045       0.55058765
H        0.44852841      -1.59431294       1.85011794        0      -0.18470393       0.27410093      -0.04613902       0.06511915      -0.61010349       0.87367386
H        1.20006286       0.73765710      -2.66649889        0       0.05775654       0.59189869       0.28660709      -0.08513337      -0.43420371      -1.35174298
H        0.26530194      -0.76817252      -2.57209820        0       0.13056935       0.07300317      -0.37752787       0.34528926      -3.51856804      -0.33723885
H       -0.51698000       0.63524209      -2.79933064        0      -0.23523904       0.07452190      -0.27795517      -2.23125315       1.53815389      -0.50570446
12
Properties=species:S:1:pos:R:3:molID:I:1:momenta:R:3:forces:R:3 Nmols=1 Comp=DMC(1) energy=-589.721435546875 stress="-inf inf -inf inf -inf -inf -inf -inf -inf" free_energy=-589.721435546875 pbc="F F F"
C       -0.16251593       0.07990671       0.05954897        0      -1.12009444      -0.31505524      -0.79622234      -2.97498059      -0.66102237      -2.98903298
O       -1.31317397      -0.32221090      -0.08744165        0      -0.76678593      -0.02190351       1.17508439       1.58715761       0.34877324       0.35322225
O        0.45076827       0.23401602       1.17705036        0      -0.82772254      -0.13047453       0.65436441       0.72625118      -0.57475662       1.29748797
O        0.58154392       0.49677912      -0.98388908        0       0.99557023      -0.31345254       0.27374093       1.03247011       0.12286344       1.55050707
C        0.08516765      -0.69455824       2.20782273        0       0.43148614      -0.73303151      -1.69287481       0.80105364      -1.84930182      -1.21441090
C        0.36715486       0.23886154      -2.33449109        0       0.65550520       0.82169366      -0.59583130       2.45381784       1.87058854       0.11045659
H        0.59519244      -0.31291607       3.03405904        0      -0.11671315      -0.05688680      -0.20014263       0.44332147       0.49680677       1.43739152
H       -0.98115640      -0.78883773       2.32324445        0       0.27192841       0.45008149       0.32727263      -0.38879859       0.19251254       0.06534483
H        0.50673878      -1.77632591       2.03196795        0       0.02097217       0.20951087       0.54526175      -0.59270406       1.82356942      -0.12046522
H        1.11153465       0.89315956      -2.84011937        0       0.19276644       0.04685481      -0.32653163      -0.06309563      -0.04877448       0.39636809
H        0.59688508      -0.68339182      -2.72340620        0       0.37479953       0.28179824       0.23405312       0.25831956      -2.55751467      -0.07291955
H       -0.52232392       0.59308646      -2.65681321        0      -0.11171205      -0.23913492       0.40182548      -3.28281212       0.83625591      -0.81394964
12
Properties=species:S:1:pos:R:3:molID:I:1:momenta:R:3:forces:R:3 Nmols=1 Comp=DMC(1) energy=-589.5814208984375 stress="-inf -inf -inf -inf inf -inf -inf -inf inf" free_energy=-589.5814208984375 pbc="F F F"
C       -0.26222448       0.06025105      -0.03592088        0      -0.70172383       0.06013120      -0.90855460       3.54480529       1.31566000       1.51067603
O       -1.37366279      -0.29866333      -0.02203132        0      -1.74452494       0.05264881       0.64682913      -1.71802795      -0.60387659      -1.24334574
O        0.42715126       0.22179364       1.18094868        0       0.21466821      -0.05689198      -0.93539016      -0.07902336      -0.60133266      -2.32096648
O        0.65650863       0.46460193      -0.93617896        0       1.22523700      -0.30860702       0.89275647      -1.11029315       0.19009107      -0.00516438
C        0.11287030      -0.71303129       2.14180151        0       0.42774434       0.61543813       1.14693365       0.64581490       0.41572994       3.56056905
C        0.42622721       0.29124321      -2.36672632        0       0.55291278      -0.35719608       0.23041693       1.67540097      -1.49832749       1.86244261
H        0.60582573      -0.20734323       3.03494915        0      -0.07736855      -0.15397983      -0.31331680      -0.00858968      -0.76729846      -0.51695091
H       -0.92667031      -0.62129444       2.45818805        0       0.10684798      -0.22434625      -0.25206611      -0.44686824      -0.64960545      -0.47564089
H        0.51429790      -1.77465529       2.18196599        0      -0.16179329       0.15009389      -0.35625879      -0.51602209       1.36703753      -0.97737265
H        1.05641728       1.00794845      -2.89402296        0      -0.15465689       0.31754273      -0.17988358      -0.45492867      -0.13111854       0.14282712
H        0.80269092      -0.75047631      -2.48845964        0      -0.14659103       0.30025360       0.14363281      -0.13297808       0.54334342      -0.73596084
H       -0.61056827       0.29651061      -2.51220201        0       0.45924821      -0.39508720      -0.11509894      -1.39928961       0.41969737      -0.80111295
12
Properties=species:S:1:pos:R:3:molID:I:1:momenta:R:3:forces:R:3 Nmols=1 Comp=DMC(1) energy=-589.1329345703125 stress="inf inf -inf inf inf inf -inf inf inf" free_energy=-589.1329345703125 pbc="F F F"
C       -0.24902386       0.08906583      -0.02854483        0      -0.42554791       0.07631059       0.64874545      -3.01153088      -1.10228693       0.56661135
O       -1.45965133      -0.27050413      -0.00698199        0       0.20062420       1.12379371      -0.60445339       4.15202045       1.30999672      -1.33190310
O        0.43761071       0.20630516       1.07560421        0      -0.10283948      -0.49299893      -0.98506877      -0.16960472       0.18759751       3.23653507
O        0.70482625       0.46004384      -0.90466298        0      -0.18562892       0.15420404       0.25194783      -1.27259135      -0.41163665      -2.56614494
C        0.12337447      -0.68091064       2.22518481        0       0.28841645       0.21203979       0.64074408       1.64488077      -0.81092429      -1.60243917
C        0.48343140       0.23179746      -2.32096913        0      -0.10249968      -1.39901434       0.00254321      -1.27223599      -0.83450496      -0.80868530
H        0.75063636      -0.29684321       3.13730699        0      -0.19328822      -0.32316168       0.00045001      -1.44286621      -0.84343541      -1.78267622
H       -0.95987504      -0.89873032       2.36591950        0       0.23400991       0.17350897       0.08422916       0.73444456       0.77002692       0.21280307
H        0.54378807      -1.62870993       1.68996285        0       0.04121285       0.11708637      -0.12959846      -0.38458806       0.67417783       1.88450003
H        0.70601263       1.08309323      -2.96016063        0      -0.23501731       0.09880895       0.05737120       1.00369799       0.16133285       0.55329126
H        0.91108661      -0.73606398      -2.72593452        0       0.20439241       0.32796611      -0.23641438       0.05673879       1.18378615       0.96465588
H       -0.59698373       0.15553213      -2.55070732        0       0.27616571      -0.06854357       0.26950406      -0.03836536      -0.28412959       0.67345226
12
Properties=species:S:1:pos:R:3:molID:I:1:momenta:R:3:forces:R:3 Nmols=1 Comp=DMC(1) energy=-589.31591796875 stress="inf -inf -inf -inf inf -inf -inf -inf -inf" free_energy=-589.31591796875 pbc="F F F"
C       -0.30229399       0.08979017       0.01704935        0       0.93032761       0.45429407       0.27240331       4.65007353       0.81489974      -0.74503630
O       -1.41433874      -0.21404485      -0.06882756        0      -0.60582579       0.43483227      -0.91043233      -2.48727894      -0.51258934      -0.89902383
O        0.44591454       0.16841524       1.09404956        0       0.26134928      -0.67501816       1.32681423       0.61458111      -0.24241519       1.36790037
O        0.69249112       0.45297160      -0.94843980        0      -0.32259012      -0.44985030      -0.82023789      -1.78757596      -0.61223602       1.70111954
C        0.17356694      -0.66716354       2.18216507        0       0.70675297       0.05356665      -0.86719540      -1.33375311      -0.86955500       3.15314698
C        0.43036730       0.19143266      -2.29582450        0      -0.99713360       0.06016595       0.76685816      -0.08328778      -0.83717453      -0.00989354
H        0.65071339      -0.33076272       3.18480101        0      -0.03840249       0.21664243      -0.08077246      -0.14040011       0.10471833      -1.78565645
H       -0.96683550      -0.55917121       2.49148833        0      -0.05895215       0.38309795      -0.29099156       1.73951507      -0.59152293      -0.93194515
H        0.54973763      -1.76104515       2.10884104        0      -0.18475373      -0.15583030       0.38143825      -0.80372143       1.69264877      -0.61809409
H        0.80613139       1.10027459      -2.73355251        0       0.13337366       0.07575542       0.11202625      -0.73634952       0.51434040      -0.84491515
H        1.19494280      -0.56501959      -2.68948625        0       0.00587768      -0.04769440       0.17544602      -1.50893986       0.25084585       0.50977397
H       -0.69735936      -0.06910036      -2.33396464        0       0.16997668      -0.34996159      -0.06535658       1.87713754       0.28804028      -0.89737594
12
Properties=species:S:1:pos:R:3:molID:I:1:momenta:R:3:forces:R:3 Nmols=1 Comp=DMC(1) energy=-589.3092651367188 stress="inf inf inf inf inf inf inf inf -inf" free_energy=-589.3092651367188 pbc="F F F"
C       -0.17571755       0.10778015      -0.01244997        0       0.24075976      -0.75405975      -0.57209355      -5.54473257      -1.76906943       1.56874692
O       -1.41677954      -0.16211891      -0.12246955        0       1.88998386       1.31136320       0.02818824       4.39007092       0.91152328       0.35611713
O        0.50999301       0.12170602       1.12854262        0       1.54851902      -0.69761048      -0.18474812       0.05934381      -0.72183359      -0.58214784
O        0.63901055       0.43967690      -0.91913802        0      -1.03265335       0.56010020       0.65797503       1.27799225       0.96985340      -2.12962484
C        0.11376981      -0.68359566       2.23434447        0      -1.52790785       0.16150070       1.19581105      -0.77691776       0.43374008       0.53269660
C        0.39634507       0.20696086      -2.27805344        0      -0.52506122       0.11089108      -0.97893522      -0.53149462      -3.64056778      -1.56673837
H        0.85171041      -0.18682820       2.94433805        0       0.35205973       0.00940832      -0.04636877      -1.34314883      -1.42622209       0.01582485
H       -0.99235992      -0.44153845       2.33496073        0      -0.41894688      -0.13716911       0.35419794       1.03939521      -0.17585489       0.68782312
H        0.12159854      -1.84510689       2.18452470        0      -0.27695040      -0.35315545      -0.16060487       0.70470685       1.90871239      -0.28137612
H        0.55575804       1.07143651      -2.85405828        0      -0.37615571      -0.04581864      -0.24812654       0.56564915       1.05832291      -0.38013196
H        1.10136475      -0.69242559      -2.59919973        0       0.12717590      -0.31579698       0.00168881      -0.94081736       1.79335606       0.51548219
H       -0.63583595      -0.19627437      -2.62708292        0      -0.00082288       0.15034691      -0.04698400       1.09995317       0.65803957       1.26332808
12
Properties=species:S:1:pos:R:3:molID:I:1:momenta:R:3:forces:R:3 Nmols=1 Comp=DMC(1) energy=-589.3237915039062 stress="-inf -inf -inf -inf -inf inf -inf inf inf" free_energy=-589.3237915039062 pbc="F F F"
C       -0.18564109       0.07440101       0.03910561        0       1.55848325       0.59245655       0.76693000       4.16030407       1.43285346      -0.76728499
O       -1.30587846      -0.08587805      -0.13003729        0      -1.47336104       0.16828468       0.07654819      -5.34299994      -1.32709384       0.14712791
O        0.55159829       0.05916628       1.12453613        0       0.04242195      -1.61132865       0.21241137      -0.63703257       0.16532445       2.20194292
O        0.62253004       0.50833655      -0.93437706        0       0.80552536       1.51013433      -0.84347578       1.17986786       0.07703757      -2.28299069
C        0.02748721      -0.68416778       2.29680027        0      -0.12447239       0.36159541      -0.04487449       1.66664207       0.08857751       0.39190757
C        0.33929952       0.19058874      -2.38304053        0      -1.26858411       0.08279345      -1.14656457      -1.73595726      -2.20001650       2.86523676
H        0.74127872      -0.54590886       3.16870274        0       0.02293210      -0.37622440       0.63857616      -0.24788308       0.02837181      -1.32770944
H       -0.92515356      -0.50135862       2.82819665        0      -0.15798685       0.05052672       0.66227077       0.04275525       0.28685340      -1.36775458
H        0.15573108      -1.66750497       1.86798514        0       0.11534724      -0.10270780      -0.38386451      -0.60697556      -0.79928565       0.71386302
H        0.47355573       1.00815977      -3.02353572        0       0.35172451      -0.18389932       0.06807349       0.26241392       1.21963191      -0.37597448
H        1.04894947      -0.64795575      -2.66739436        0       0.16657449      -0.28657585      -0.35062099      -1.06940520       0.79356515       0.36118972
H       -0.82224457      -0.09968798      -2.35553988        0      -0.03860452      -0.20505513       0.34459035       2.32827091       0.23418072      -0.55955327
12
Properties=species:S:1:pos:R:3:molID:I:1:momenta:R:3:forces:R:3 Nmols=1 Comp=DMC(1) energy=-589.6353759765625 stress="inf inf inf inf inf -inf inf -inf inf" free_energy=-589.6353759765625 pbc="F F F"
C       -0.13610184       0.14831809       0.01661686        0      -1.50174636       1.05245023      -2.17266755      -2.41896200      -0.75522417      -0.11283712
O       -1.37494371      -0.07141004      -0.12043208        0       0.48751322       0.27159033       0.62165123       4.54213619       0.82508516       0.60645270
O        0.57722530      -0.03035617       1.19260368        0       0.88902891      -0.92224759       1.34782212      -0.19978309       0.97806835      -1.63958836
O        0.69543075       0.58914145      -1.00943353        0       0.93175263       0.62404245      -0.96284460      -1.68075323      -1.33747792       0.69499826
C        0.03506730      -0.70691012       2.32197241        0       0.20880237      -0.88510475      -0.25773930       0.23044512      -2.40631866      -1.89277184
C        0.29199873       0.17136840      -2.35783362        0      -0.16302519       0.42410883       1.55265628      -1.36215341      -0.29810631       1.59333611
H        0.77653097      -0.84455850       3.09192094        0       0.49870336      -0.09199042       0.01832224      -0.02403373       1.00869405       0.31310326
H       -0.95351488      -0.37742577       2.51686226        0      -0.30424816       0.47356942      -0.56489736      -0.58810997       0.66587615       0.80526268
H       -0.07919686      -1.77986618       1.99338790        0      -0.44969638      -0.42391835       0.45322418      -0.22248670       0.40789723       0.08980334
H        0.50571444       1.03477095      -2.96588202        0      -0.37265815      -0.06516158       0.20209619      -0.44683582       0.10036463      -0.22676104
H        0.88240004      -0.66281444      -2.69659782        0       0.22593758      -0.47204503       0.04013437       0.42088768      -0.29963839       0.06493745
H       -0.81011948      -0.22828494      -2.31039277        0      -0.45036382       0.01470646      -0.27775780       1.74964809       1.11078000      -0.29593602
12
Properties=species:S:1:pos:R:3:molID:I:1:momenta:R:3:forces:R:3 Nmols=1 Comp=DMC(1) energy=-589.0057983398438 stress="-inf inf inf inf -inf -inf inf -inf inf" free_energy=-589.0057983398438 pbc="F F F"
C       -0.16439019       0.21352061      -0.08902726        0       2.16865503       0.37484561       0.26326835       2.59965777      -1.51108420       3.94592190
O       -1.30893784      -0.03628687      -0.07757345        0       0.09881780       0.63258088       0.48224111      -1.43550086       0.17811209      -0.61216694
O        0.60203685      -0.05144939       1.19785450        0      -0.04057293      -0.05492646      -1.62126222      -0.83043206      -0.32102227      -3.46338773
O        0.68532936       0.54533981      -1.02013938        0      -0.84806626      -1.10524106       0.92589992      -0.27069843       0.40391916       1.37635493
C        0.00118230      -0.82071437       2.27700808        0      -0.64266885      -1.19956726      -0.25912085       1.35915542       2.59987450      -0.94821382
C        0.25529768       0.19931938      -2.28086259        0      -0.44375919       1.38292030      -0.54314409      -1.46541429       2.94836783      -2.00147676
H        0.80132971      -0.68314996       2.95248543        0      -0.06891901       0.14028848       0.14023377       0.90454096      -0.93225420       1.12828386
H       -0.69627353      -0.10552997       2.54338686        0       0.23916468       0.03598293       0.65431703      -2.42564774       1.01128364       1.18416572