ITEM: TIMESTEP
0
ITEM: NUMBER OF ATOMS
480
ITEM: BOX BOUNDS pp pp pp
0.0000000000000000e+00 8.1799999999999997e+00
0.0000000000000000e+00 8.1799999999999997e+00
-1.0000000000000000e+01 1.4269999999999999e+02
ITEM: ATOMS id type xu yu zu
1 1 0 0 0
2 1 0 2.045 2.045
3 1 2.045 0 2.045
4 1 2.045 2.045 0
241 1 4.09 0 0
242 1 4.09 2.045 2.045
243 1 6.135 0 2.045
244 1 6.135 2.045 0
121 1 0 4.09 0
122 1 0 6.135 2.045
123 1 2.045 4.09 2.045
124 1 2.045 6.135 0
361 1 4.09 4.09 0
362 1 4.09 6.135 2.045
363 1 6.135 4.09 2.045
364 1 6.135 6.135 0
5 1 0 0 4.09
8 1 2.045 2.045 4.09
245 1 4.09 0 4.09
248 1 6.135 2.045 4.09
125 1 0 4.09 4.09
128 1 2.045 6.135 4.09
365 1 4.09 4.09 4.09
368 1 6.135 6.135 4.09
6 1 0 2.045 6.135
7 1 2.045 0 6.135
9 1 0 0 8.18
12 1 2.045 2.045 8.18
246 1 4.09 2.045 6.135
247 1 6.135 0 6.135
249 1 4.09 0 8.18
252 1 6.135 2.045 8.18
126 1 0 6.135 6.135
127 1 2.045 4.09 6.135
129 1 0 4.09 8.18
132 1 2.045 6.135 8.18
366 1 4.09 6.135 6.135
367 1 6.135 4.09 6.135
369 1 4.09 4.09 8.18
372 1 6.135 6.135 8.18
10 1 0 2.045 10.225
11 1 2.045 0 10.225
13 2 0 0 12.27
16 2 2.045 2.045 12.27
250 1 4.09 2.045 10.225
251 1 6.135 0 10.225
253 2 4.09 0 12.27
256 2 6.135 2.045 12.27
130 1 0 6.135 10.225
131 1 2.045 4.09 10.225
133 2 0 4.09 12.27
136 2 2.045 6.135 12.27
370 1 4.09 6.135 10.225
371 1 6.135 4.09 10.225
373 2 4.09 4.09 12.27
376 2 6.135 6.135 12.27
14 2 0 2.045 14.315
15 2 2.045 0 14.315
17 2 0 0 16.36
20 2 2.045 2.045 16.36
254 2 4.09 2.045 14.315
255 2 6.135 0 14.315
257 2 4.09 0 16.36
260 2 6.135 2.045 16.36
134 2 0 6.135 14.315
135 2 2.045 4.09 14.315
137 2 0 4.09 16.36
140 2 2.045 6.135 16.36
374 2 4.09 6.135 14.315
375 2 6.135 4.09 14.315
377 2 4.09 4.09 16.36
380 2 6.135 6.135 16.36
18 2 0 2.045 18.405
19 2 2.045 0 18.405
21 2 0 0 20.45
24 2 2.045 2.045 20.45
258 2 4.09 2.045 18.405
259 2 6.135 0 18.405
261 2 4.09 0 20.45
264 2 6.135 2.045 20.45
138 2 0 6.135 18.405
139 2 2.045 4.09 18.405
141 2 0 4.09 20.45
144 2 2.045 6.135 20.45
378 2 4.09 6.135 18.405
379 2 6.135 4.09 18.405
381 2 4.09 4.09 20.45
384 2 6.135 6.135 20.45
22 2 0 2.045 22.495
23 2 2.045 0 22.495
25 3 0 0 24.54
28 3 2.045 2.045 24.54
262 2 4.09 2.045 22.495
263 2 6.135 0 22.495
265 3 4.09 0 24.54
268 3 6.135 2.045 24.54
142 2 0 6.135 22.495
143 2 2.045 4.09 22.495
145 3 0 4.09 24.54
148 3 2.045 6.135 24.54
382 2 4.09 6.135 22.495
383 2 6.135 4.09 22.495
385 3 4.09 4.09 24.54
388 3 6.135 6.135 24.54
26 3 0 2.045 26.585
27 3 2.045 0 26.585
29 3 0 0 28.63
32 3 2.045 2.045 28.63
266 3 4.09 2.045 26.585
267 3 6.135 0 26.585
269 3 4.09 0 28.63
272 3 6.135 2.045 28.63
146 3 0 6.135 26.585
147 3 2.045 4.09 26.585
149 3 0 4.09 28.63
152 3 2.045 6.135 28.63
386 3 4.09 6.135 26.585
387 3 6.135 4.09 26.585
389 3 4.09 4.09 28.63
392 3 6.135 6.135 28.63
30 3 0 2.045 30.675
31 3 2.045 0 30.675
33 3 0 0 32.72
36 3 2.045 2.045 32.72
270 3 4.09 2.045 30.675
271 3 6.135 0 30.675
273 3 4.09 0 32.72
276 3 6.135 2.045 32.72
150 3 0 6.135 30.675
151 3 2.045 4.09 30.675
153 3 0 4.09 32.72
156 3 2.045 6.135 32.72
390 3 4.09 6.135 30.675
391 3 6.135 4.09 30.675
393 3 4.09 4.09 32.72
396 3 6.135 6.135 32.72
34 3 0 2.045 34.765
35 3 2.045 0 34.765
37 4 0 0 36.81
40 4 2.045 2.045 36.81
274 3 4.09 2.045 34.765
275 3 6.135 0 34.765
277 4 4.09 0 36.81
280 4 6.135 2.045 36.81
154 3 0 6.135 34.765
155 3 2.045 4.09 34.765
157 4 0 4.09 36.81
160 4 2.045 6.135 36.81
394 3 4.09 6.135 34.765
395 3 6.135 4.09 34.765
397 4 4.09 4.09 36.81
400 4 6.135 6.135 36.81
38 4 0 2.045 38.855
39 4 2.045 0 38.855
41 4 0 0 40.9
44 4 2.045 2.045 40.9
278 4 4.09 2.045 38.855
279 4 6.135 0 38.855
281 4 4.09 0 40.9
284 4 6.135 2.045 40.9
158 4 0 6.135 38.855
159 4 2.045 4.09 38.855
161 4 0 4.09 40.9
164 4 2.045 6.135 40.9
398 4 4.09 6.135 38.855
399 4 6.135 4.09 38.855
401 4 4.09 4.09 40.9
404 4 6.135 6.135 40.9
42 4 0 2.045 42.945
43 4 2.045 0 42.945
45 4 0 0 44.99
48 4 2.045 2.045 44.99
282 4 4.09 2.045 42.945
283 4 6.135 0 42.945
285 4 4.09 0 44.99
288 4 6.135 2.045 44.99
162 4 0 6.135 42.945
163 4 2.045 4.09 42.945
165 4 0 4.09 44.99
168 4 2.045 6.135 44.99
402 4 4.09 6.135 42.945
403 4 6.135 4.09 42.945
405 4 4.09 4.09 44.99
408 4 6.135 6.135 44.99
46 4 0 2.045 47.035
47 4 2.045 0 47.035
49 5 0 0 49.08
52 5 2.045 2.045 49.08
286 4 4.09 2.045 47.035
287 4 6.135 0 47.035
289 5 4.09 0 49.08
292 5 6.135 2.045 49.08
166 4 0 6.135 47.035
167 4 2.045 4.09 47.035
169 5 0 4.09 49.08
172 5 2.045 6.135 49.08
406 4 4.09 6.135 47.035
407 4 6.135 4.09 47.035
409 5 4.09 4.09 49.08
412 5 6.135 6.135 49.08
50 5 0 2.045 51.125
51 5 2.045 0 51.125
53 5 0 0 53.17
56 5 2.045 2.045 53.17
290 5 4.09 2.045 51.125
291 5 6.135 0 51.125
293 5 4.09 0 53.17
296 5 6.135 2.045 53.17
170 5 0 6.135 51.125
171 5 2.045 4.09 51.125
173 5 0 4.09 53.17
176 5 2.045 6.135 53.17
410 5 4.09 6.135 51.125
411 5 6.135 4.09 51.125
413 5 4.09 4.09 53.17
416 5 6.135 6.135 53.17
54 5 0 2.045 55.215
55 5 2.045 0 55.215
57 5 0 0 57.26
60 5 2.045 2.045 57.26
294 5 4.09 2.045 55.215
295 5 6.135 0 55.215
297 5 4.09 0 57.26
300 5 6.135 2.045 57.26
174 5 0 6.135 55.215
175 5 2.045 4.09 55.215
177 5 0 4.09 57.26
180 5 2.045 6.135 57.26
414 5 4.09 6.135 55.215
415 5 6.135 4.09 55.215
417 5 4.09 4.09 57.26
420 5 6.135 6.135 57.26
58 5 0 2.045 59.305
59 5 2.045 0 59.305
61 6 0 0 61.35
64 6 2.045 2.045 61.35
298 5 4.09 2.045 59.305
299 5 6.135 0 59.305
301 6 4.09 0 61.35
304 6 6.135 2.045 61.35
178 5 0 6.135 59.305
179 5 2.045 4.09 59.305
181 6 0 4.09 61.35
184 6 2.045 6.135 61.35
418 5 4.09 6.135 59.305
419 5 6.135 4.09 59.305
421 6 4.09 4.09 61.35
424 6 6.135 6.135 61.35
62 6 0 2.045 63.395
63 6 2.045 0 63.395
65 6 0 0 65.44
68 6 2.045 2.045 65.44
302 6 4.09 2.045 63.395
303 6 6.135 0 63.395
305 6 4.09 0 65.44
308 6 6.135 2.045 65.44
182 6 0 6.135 63.395
183 6 2.045 4.09 63.395
185 6 0 4.09 65.44
188 6 2.045 6.135 65.44
422 6 4.09 6.135 63.395
423 6 6.135 4.09 63.395
425 6 4.09 4.09 65.44
428 6 6.135 6.135 65.44
66 6 0 2.045 67.485
67 6 2.045 0 67.485
69 6 0 0 69.53
72 6 2.045 2.045 69.53
306 6 4.09 2.045 67.485
307 6 6.135 0 67.485
309 6 4.09 0 69.53
312 6 6.135 2.045 69.53
186 6 0 6.135 67.485
187 6 2.045 4.09 67.485
189 6 0 4.09 69.53
192 6 2.045 6.135 69.53
426 6 4.09 6.135 67.485
427 6 6.135 4.09 67.485
429 6 4.09 4.09 69.53
432 6 6.135 6.135 69.53
70 6 0 2.045 71.575
71 6 2.045 0 71.575
73 7 0 0 73.62
76 7 2.045 2.045 73.62
310 6 4.09 2.045 71.575
311 6 6.135 0 71.575
313 7 4.09 0 73.62
316 7 6.135 2.045 73.62
190 6 0 6.135 71.575
191 6 2.045 4.09 71.575
193 7 0 4.09 73.62
196 7 2.045 6.135 73.62
430 6 4.09 6.135 71.575
431 6 6.135 4.09 71.575
433 7 4.09 4.09 73.62
436 7 6.135 6.135 73.62
74 7 0 2.045 75.665
75 7 2.045 0 75.665
77 7 0 0 77.71
80 7 2.045 2.045 77.71
314 7 4.09 2.045 75.665
315 7 6.135 0 75.665
317 7 4.09 0 77.71
320 7 6.135 2.045 77.71
194 7 0 6.135 75.665
195 7 2.045 4.09 75.665
197 7 0 4.09 77.71
200 7 2.045 6.135 77.71
434 7 4.09 6.135 75.665
435 7 6.135 4.09 75.665
437 7 4.09 4.09 77.71
440 7 6.135 6.135 77.71
78 7 0 2.045 79.755
79 7 2.045 0 79.755
81 7 0 0 81.8
84 7 2.045 2.045 81.8
318 7 4.09 2.045 79.755
319 7 6.135 0 79.755
321 7 4.09 0 81.8
324 7 6.135 2.045 81.8
198 7 0 6.135 79.755
199 7 2.045 4.09 79.755
201 7 0 4.09 81.8
204 7 2.045 6.135 81.8
438 7 4.09 6.135 79.755
439 7 6.135 4.09 79.755
441 7 4.09 4.09 81.8
444 7 6.135 6.135 81.8
82 7 0 2.045 83.845
83 7 2.045 0 83.845
85 8 0 0 85.89
88 8 2.045 2.045 85.89
322 7 4.09 2.045 83.845
323 7 6.135 0 83.845
325 8 4.09 0 85.89
328 8 6.135 2.045 85.89
202 7 0 6.135 83.845
203 7 2.045 4.09 83.845
205 8 0 4.09 85.89
208 8 2.045 6.135 85.89
442 7 4.09 6.135 83.845
443 7 6.135 4.09 83.845
445 8 4.09 4.09 85.89
448 8 6.135 6.135 85.89
86 8 0 2.045 87.935
87 8 2.045 0 87.935
89 8 0 0 89.98
92 8 2.045 2.045 89.98
326 8 4.09 2.045 87.935
327 8 6.135 0 87.935
329 8 4.09 0 89.98
332 8 6.135 2.045 89.98
206 8 0 6.135 87.935
207 8 2.045 4.09 87.935
209 8 0 4.09 89.98
212 8 2.045 6.135 89.98
446 8 4.09 6.135 87.935
447 8 6.135 4.09 87.935
449 8 4.09 4.09 89.98
452 8 6.135 6.135 89.98
90 8 0 2.045 92.025
91 8 2.045 0 92.025
93 8 0 0 94.07
96 8 2.045 2.045 94.07
330 8 4.09 2.045 92.025
331 8 6.135 0 92.025
333 8 4.09 0 94.07
336 8 6.135 2.045 94.07
210 8 0 6.135 92.025
211 8 2.045 4.09 92.025
213 8 0 4.09 94.07
216 8 2.045 6.135 94.07
450 8 4.09 6.135 92.025
451 8 6.135 4.09 92.025
453 8 4.09 4.09 94.07
456 8 6.135 6.135 94.07
94 8 0 2.045 96.115
95 8 2.045 0 96.115
97 9 0 0 98.16
100 9 2.045 2.045 98.16
334 8 4.09 2.045 96.115
335 8 6.135 0 96.115
337 9 4.09 0 98.16
340 9 6.135 2.045 98.16
214 8 0 6.135 96.115
215 8 2.045 4.09 96.115
217 9 0 4.09 98.16
220 9 2.045 6.135 98.16
454 8 4.09 6.135 96.115
455 8 6.135 4.09 96.115
457 9 4.09 4.09 98.16
460 9 6.135 6.135 98.16
98 9 0 2.045 100.205
99 9 2.045 0 100.205
101 9 0 0 102.25
104 9 2.045 2.045 102.25
338 9 4.09 2.045 100.205
339 9 6.135 0 100.205
341 9 4.09 0 102.25
344 9 6.135 2.045 102.25
218 9 0 6.135 100.205
219 9 2.045 4.09 100.205
221 9 0 4.09 102.25
224 9 2.045 6.135 102.25
458 9 4.09 6.135 100.205
459 9 6.135 4.09 100.205
461 9 4.09 4.09 102.25
464 9 6.135 6.135 102.25
102 9 0 2.045 104.295
103 9 2.045 0 104.295
105 9 0 0 106.34
108 9 2.045 2.045 106.34
342 9 4.09 2.045 104.295
343 9 6.135 0 104.295
345 9 4.09 0 106.34
348 9 6.135 2.045 106.34
222 9 0 6.135 104.295
223 9 2.045 4.09 104.295
225 9 0 4.09 106.34
228 9 2.045 6.135 106.34
462 9 4.09 6.135 104.295
463 9 6.135 4.09 104.295
465 9 4.09 4.09 106.34
468 9 6.135 6.135 106.34
106 9 0 2.045 108.385
107 9 2.045 0 108.385
109 10 0 0 110.43
112 10 2.045 2.045 110.43
346 9 4.09 2.045 108.385
347 9 6.135 0 108.385
349 10 4.09 0 110.43
352 10 6.135 2.045 110.43
226 9 0 6.135 108.385
227 9 2.045 4.09 108.385
229 10 0 4.09 110.43
232 10 2.045 6.135 110.43
466 9 4.09 6.135 108.385
467 9 6.135 4.09 108.385
469 10 4.09 4.09 110.43
472 10 6.135 6.135 110.43
110 10 0 2.045 112.475
111 10 2.045 0 112.475
113 10 0 0 114.52
116 10 2.045 2.045 114.52
350 10 4.09 2.045 112.475
351 10 6.135 0 112.475
353 10 4.09 0 114.52
356 10 6.135 2.045 114.52
230 10 0 6.135 112.475
231 10 2.045 4.09 112.475
233 10 0 4.09 114.52
236 10 2.045 6.135 114.52
470 10 4.09 6.135 112.475
471 10 6.135 4.09 112.475
473 10 4.09 4.09 114.52
476 10 6.135 6.135 114.52
114 10 0 2.045 116.565
115 10 2.045 0 116.565
354 10 4.09 2.045 116.565
355 10 6.135 0 116.565
234 10 0 6.135 116.565
235 10 2.045 4.09 116.565
474 10 4.09 6.135 116.565
475 10 6.135 4.09 116.565
117 10 0 0 118.61
118 10 0 2.045 120.655
119 10 2.045 0 120.655
120 10 2.045 2.045 118.61
357 10 4.09 0 118.61
358 10 4.09 2.045 120.655
359 10 6.135 0 120.655
360 10 6.135 2.045 118.61
237 10 0 4.09 118.61
238 10 0 6.135 120.655
239 10 2.045 4.09 120.655
240 10 2.045 6.135 118.61
477 10 4.09 4.09 118.61
478 10 4.09 6.135 120.655
479 10 6.135 4.09 120.655
480 10 6.135 6.135 118.61
ITEM: TIMESTEP
50
ITEM: NUMBER OF ATOMS
480
ITEM: BOX BOUNDS pp pp pp
3.0471285853517681e-02 8.1495287141464861e+00
3.0471285854618321e-02 8.1495287141453794e+00
-3.6094345333850857e+00 1.3630943453338509e+02
ITEM: ATOMS id type xu yu zu
1 1 0.0304713 0.0304713 5.33583
2 1 0.0304713 2.06024 7.31984
3 1 2.06024 0.0304713 7.31984
4 1 2.06024 2.06024 5.33583
241 1 4.09 0.0304713 5.33583
242 1 4.09 2.06024 7.31984
243 1 6.11976 0.0304713 7.31984
244 1 6.11976 2.06024 5.33583
121 1 0.0304713 4.09 5.33583
122 1 0.0304713 6.11976 7.31984
123 1 2.06024 4.09 7.31984
124 1 2.06024 6.11976 5.33583
361 1 4.09 4.09 5.33583
362 1 4.09 6.11976 7.31984
363 1 6.11976 4.09 7.31984
364 1 6.11976 6.11976 5.33583
5 1 0.0304713 0.0304713 9.25781
8 1 2.06024 2.06024 9.25781
245 1 4.09 0.0304713 9.25781
248 1 6.11976 2.06024 9.25781
125 1 0.0304713 4.09 9.25781
128 1 2.06024 6.11976 9.25781
365 1 4.09 4.09 9.25781
368 1 6.11976 6.11976 9.25781
6 1 0.0304713 2.06024 11.1368
7 1 2.06024 0.0304713 11.1368
9 1 0.0304713 0.0304713 12.9918
12 1 2.06024 2.06024 12.9918
246 1 4.09 2.06024 11.1368
247 1 6.11976 0.0304713 11.1368
249 1 4.09 0.0304713 12.9918
252 1 6.11976 2.06024 12.9918
126 1 0.0304713 6.11976 11.1368
127 1 2.06024 4.09 11.1368
129 1 0.0304713 4.09 12.9918
132 1 2.06024 6.11976 12.9918
366 1 4.09 6.11976 11.1368
367 1 6.11976 4.09 11.1368
369 1 4.09 4.09 12.9918
372 1 6.11976 6.11976 12.9918
10 1 0.0304713 2.06024 14.8587
11 1 2.06024 0.0304713 14.8587
13 2 0.0304713 0.0304713 16.724
16 2 2.06024 2.06024 16.724
250 1 4.09 2.06024 14.8587
251 1 6.11976 0.0304713 14.8587
253 2 4.09 0.0304713 16.724
256 2 6.11976 2.06024 16.724
130 1 0.0304713 6.11976 14.8587
131 1 2.06024 4.09 14.8587
133 2 0.0304713 4.09 16.724
136 2 2.06024 6.11976 16.724
370 1 4.09 6.11976 14.8587
371 1 6.11976 4.09 14.8587
373 2 4.09 4.09 16.724
376 2 6.11976 6.11976 16.724
14 2 0.0304713 2.06024 18.6789
15 2 2.06024 0.0304713 18.6789
17 2 0.0304713 0.0304713 20.563
20 2 2.06024 2.06024 20.563
254 2 4.09 2.06024 18.6789
255 2 6.11976 0.0304713 18.6789
257 2 4.09 0.0304713 20.563
260 2 6.11976 2.06024 20.563
134 2 0.0304713 6.11976 18.6789
135 2 2.06024 4.09 18.6789
137 2 0.0304713 4.09 20.563
140 2 2.06024 6.11976 20.563
374 2 4.09 6.11976 18.6789
375 2 6.11976 4.09 18.6789
377 2 4.09 4.09 20.563
380 2 6.11976 6.11976 20.563
18 2 0.0304713 2.06024 22.4961
19 2 2.06024 0.0304713 22.4961
21 2 0.0304713 0.0304713 24.4353
24 2 2.06024 2.06024 24.4353
258 2 4.09 2.06024 22.4961
259 2 6.11976 0.0304713 22.4961
261 2 4.09 0.0304713 24.4353
264 2 6.11976 2.06024 24.4353
138 2 0.0304713 6.11976 22.4961
139 2 2.06024 4.09 22.4961
141 2 0.0304713 4.09 24.4353
144 2 2.06024 6.11976 24.4353
378 2 4.09 6.11976 22.4961
379 2 6.11976 4.09 22.4961
381 2 4.09 4.09 24.4353
384 2 6.11976 6.11976 24.4353
22 2 0.0304713 2.06024 26.5182
23 2 2.06024 0.0304713 26.5182
25 3 0.0304713 0.0304713 28.2908
28 3 2.06024 2.06024 28.2908
262 2 4.09 2.06024 26.5182
263 2 6.11976 0.0304713 26.5182
265 3 4.09 0.0304713 28.2908
268 3 6.11976 2.06024 28.2908
142 2 0.0304713 6.11976 26.5182
143 2 2.06024 4.09 26.5182
145 3 0.0304713 4.09 28.2908
148 3 2.06024 6.11976 28.2908
382 2 4.09 6.11976 26.5182
383 2 6.11976 4.09 26.5182
385 3 4.09 4.09 28.2908
388 3 6.11976 6.11976 28.2908
26 3 0.0304713 2.06024 29.9683
27 3 2.06024 0.0304713 29.9683
29 3 0.0304713 0.0304713 31.7886
32 3 2.06024 2.06024 31.7886
266 3 4.09 2.06024 29.9683
267 3 6.11976 0.0304713 29.9683
269 3 4.09 0.0304713 31.7886
272 3 6.11976 2.06024 31.7886
146 3 0.0304713 6.11976 29.9683
147 3 2.06024 4.09 29.9683
149 3 0.0304713 4.09 31.7886
152 3 2.06024 6.11976 31.7886
386 3 4.09 6.11976 29.9683
387 3 6.11976 4.09 29.9683
389 3 4.09 4.09 31.7886
392 3 6.11976 6.11976 31.7886
30 3 0.0304713 2.06024 33.6693
31 3 2.06024 0.0304713 33.6693
33 3 0.0304713 0.0304713 35.5423
36 3 2.06024 2.06024 35.5423
270 3 4.09 2.06024 33.6693
271 3 6.11976 0.0304713 33.6693
273 3 4.09 0.0304713 35.5423
276 3 6.11976 2.06024 35.5423
150 3 0.0304713 6.11976 33.6693
151 3 2.06024 4.09 33.6693
153 3 0.0304713 4.09 35.5423
156 3 2.06024 6.11976 35.5423
390 3 4.09 6.11976 33.6693
391 3 6.11976 4.09 33.6693
393 3 4.09 4.09 35.5423
396 3 6.11976 6.11976 35.5423
34 3 0.0304713 2.06024 37.4659
35 3 2.06024 0.0304713 37.4659
37 4 0.0304713 0.0304713 39.2552
40 4 2.06024 2.06024 39.2552
274 3 4.09 2.06024 37.4659
275 3 6.11976 0.0304713 37.4659
277 4 4.09 0.0304713 39.2552
280 4 6.11976 2.06024 39.2552
154 3 0.0304713 6.11976 37.4659
155 3 2.06024 4.09 37.4659
157 4 0.0304713 4.09 39.2552
160 4 2.06024 6.11976 39.2552
394 3 4.09 6.11976 37.4659
395 3 6.11976 4.09 37.4659
397 4 4.09 4.09 39.2552
400 4 6.11976 6.11976 39.2552
38 4 0.0304713 2.06024 41.1169
39 4 2.06024 0.0304713 41.1169
41 4 0.0304713 0.0304713 43.0249
44 4 2.06024 2.06024 43.0249
278 4 4.09 2.06024 41.1169
279 4 6.11976 0.0304713 41.1169
281 4 4.09 0.0304713 43.0249
284 4 6.11976 2.06024 43.0249
158 4 0.0304713 6.11976 41.1169
159 4 2.06024 4.09 41.1169
161 4 0.0304713 4.09 43.0249
164 4 2.06024 6.11976 43.0249
398 4 4.09 6.11976 41.1169
399 4 6.11976 4.09 41.1169
401 4 4.09 4.09 43.0249
404 4 6.11976 6.11976 43.0249
42 4 0.0304713 2.06024 44.9253
43 4 2.06024 0.0304713 44.9253
45 4 0.0304713 0.0304713 46.8593
48 4 2.06024 2.06024 46.8593
282 4 4.09 2.06024 44.9253
283 4 6.11976 0.0304713 44.9253
285 4 4.09 0.0304713 46.8593
288 4 6.11976 2.06024 46.8593
162 4 0.0304713 6.11976 44.9253
163 4 2.06024 4.09 44.9253
165 4 0.0304713 4.09 46.8593
168 4 2.06024 6.11976 46.8593
402 4 4.09 6.11976 44.9253
403 4 6.11976 4.09 44.9253
405 4 4.09 4.09 46.8593
408 4 6.11976 6.11976 46.8593
46 4 0.0304713 2.06024 48.7522
47 4 2.06024 0.0304713 48.7522
49 5 0.0304713 0.0304713 50.5516
52 5 2.06024 2.06024 50.5516
286 4 4.09 2.06024 48.7522
287 4 6.11976 0.0304713 48.7522
289 5 4.09 0.0304713 50.5516
292 5 6.11976 2.06024 50.5516
166 4 0.0304713 6.11976 48.7522
167 4 2.06024 4.09 48.7522
169 5 0.0304713 4.09 50.5516
172 5 2.06024 6.11976 50.5516
406 4 4.09 6.11976 48.7522
407 4 6.11976 4.09 48.7522
409 5 4.09 4.09 50.5516
412 5 6.11976 6.11976 50.5516
50 5 0.0304713 2.06024 52.3899
51 5 2.06024 0.0304713 52.3899
53 5 0.0304713 0.0304713 54.2531
56 5 2.06024 2.06024 54.2531
290 5 4.09 2.06024 52.3899
291 5 6.11976 0.0304713 52.3899
293 5 4.09 0.0304713 54.2531
296 5 6.11976 2.06024 54.2531
170 5 0.0304713 6.11976 52.3899
171 5 2.06024 4.09 52.3899
173 5 0.0304713 4.09 54.2531
176 5 2.06024 6.11976 54.2531
410 5 4.09 6.11976 52.3899
411 5 6.11976 4.09 52.3899
413 5 4.09 4.09 54.2531
416 5 6.11976 6.11976 54.2531
54 5 0.0304713 2.06024 56.1488
55 5 2.06024 0.0304713 56.1488
57 5 0.0304713 0.0304713 58.0043
60 5 2.06024 2.06024 58.0043
294 5 4.09 2.06024 56.1488
295 5 6.11976 0.0304713 56.1488
297 5 4.09 0.0304713 58.0043
300 5 6.11976 2.06024 58.0043
174 5 0.0304713 6.11976 56.1488
175 5 2.06024 4.09 56.1488
177 5 0.0304713 4.09 58.0043
180 5 2.06024 6.11976 58.0043
414 5 4.09 6.11976 56.1488
415 5 6.11976 4.09 56.1488
417 5 4.09 4.09 58.0043
420 5 6.11976 6.11976 58.0043
58 5 0.0304713 2.06024 59.679
59 5 2.06024 0.0304713 59.679
61 6 0.0304713 0.0304713 61.5382
64 6 2.06024 2.06024 61.5382
298 5 4.09 2.06024 59.679
299 5 6.11976 0.0304713 59.679
301 6 4.09 0.0304713 61.5382
304 6 6.11976 2.06024 61.5382
178 5 0.0304713 6.11976 59.679
179 5 2.06024 4.09 59.679
181 6 0.0304713 4.09 61.5382
184 6 2.06024 6.11976 61.5382
418 5 4.09 6.11976 59.679
419 5 6.11976 4.09 59.679
421 6 4.09 4.09 61.5382
424 6 6.11976 6.11976 61.5382
62 6 0.0304713 2.06024 63.5398
63 6 2.06024 0.0304713 63.5398
65 6 0.0304713 0.0304713 65.4784
68 6 2.06024 2.06024 65.4784
302 6 4.09 2.06024 63.5398
303 6 6.11976 0.0304713 63.5398
305 6 4.09 0.0304713 65.4784
308 6 6.11976 2.06024 65.4784
182 6 0.0304713 6.11976 63.5398
183 6 2.06024 4.09 63.5398
185 6 0.0304713 4.09 65.4784
188 6 2.06024 6.11976 65.4784
422 6 4.09 6.11976 63.5398
423 6 6.11976 4.09 63.5398
425 6 4.09 4.09 65.4784
428 6 6.11976 6.11976 65.4784
66 6 0.0304713 2.06024 67.3762
67 6 2.06024 0.0304713 67.3762
69 6 0.0304713 0.0304713 69.273
72 6 2.06024 2.06024 69.273
306 6 4.09 2.06024 67.3762
307 6 6.11976 0.0304713 67.3762
309 6 4.09 0.0304713 69.273
312 6 6.11976 2.06024 69.273
186 6 0.0304713 6.11976 67.3762
187 6 2.06024 4.09 67.3762
189 6 0.0304713 4.09 69.273
192 6 2.06024 6.11976 69.273
426 6 4.09 6.11976 67.3762
427 6 6.11976 4.09 67.3762
429 6 4.09 4.09 69.273
432 6 6.11976 6.11976 69.273
70 6 0.0304713 2.06024 71.1398
71 6 2.06024 0.0304713 71.1398
73 7 0.0304713 0.0304713 72.9854
76 7 2.06024 2.06024 72.9854
310 6 4.09 2.06024 71.1398
311 6 6.11976 0.0304713 71.1398
313 7 4.09 0.0304713 72.9854
316 7 6.11976 2.06024 72.9854
190 6 0.0304713 6.11976 71.1398
191 6 2.06024 4.09 71.1398
193 7 0.0304713 4.09 72.9854
196 7 2.06024 6.11976 72.9854
430 6 4.09 6.11976 71.1398
431 6 6.11976 4.09 71.1398
433 7 4.09 4.09 72.9854
436 7 6.11976 6.11976 72.9854
74 7 0.0304713 2.06024 74.8888
75 7 2.06024 0.0304713 74.8888
77 7 0.0304713 0.0304713 76.7665
80 7 2.06024 2.06024 76.7665
314 7 4.09 2.06024 74.8888
315 7 6.11976 0.0304713 74.8888
317 7 4.09 0.0304713 76.7665
320 7 6.11976 2.06024 76.7665
194 7 0.0304713 6.11976 74.8888
195 7 2.06024 4.09 74.8888
197 7 0.0304713 4.09 76.7665
200 7 2.06024 6.11976 76.7665
434 7 4.09 6.11976 74.8888
435 7 6.11976 4.09 74.8888
437 7 4.09 4.09 76.7665
440 7 6.11976 6.11976 76.7665
78 7 0.0304713 2.06024 78.6657
79 7 2.06024 0.0304713 78.6657
81 7 0.0304713 0.0304713 80.573
84 7 2.06024 2.06024 80.573
318 7 4.09 2.06024 78.6657
319 7 6.11976 0.0304713 78.6657
321 7 4.09 0.0304713 80.573
324 7 6.11976 2.06024 80.573
198 7 0.0304713 6.11976 78.6657
199 7 2.06024 4.09 78.6657
201 7 0.0304713 4.09 80.573
204 7 2.06024 6.11976 80.573
438 7 4.09 6.11976 78.6657
439 7 6.11976 4.09 78.6657
441 7 4.09 4.09 80.573
444 7 6.11976 6.11976 80.573
82 7 0.0304713 2.06024 82.5104
83 7 2.06024 0.0304713 82.5104
85 8 0.0304713 0.0304713 84.3477
88 8 2.06024 2.06024 84.3477
322 7 4.09 2.06024 82.5104
323 7 6.11976 0.0304713 82.5104
325 8 4.09 0.0304713 84.3477
328 8 6.11976 2.06024 84.3477
202 7 0.0304713 6.11976 82.5104
203 7 2.06024 4.09 82.5104
205 8 0.0304713 4.09 84.3477
208 8 2.06024 6.11976 84.3477
442 7 4.09 6.11976 82.5104
443 7 6.11976 4.09 82.5104
445 8 4.09 4.09 84.3477
448 8 6.11976 6.11976 84.3477
86 8 0.0304713 2.06024 86.1633
87 8 2.06024 0.0304713 86.1633
89 8 0.0304713 0.0304713 88.0193
92 8 2.06024 2.06024 88.0193
326 8 4.09 2.06024 86.1633
327 8 6.11976 0.0304713 86.1633
329 8 4.09 0.0304713 88.0193
332 8 6.11976 2.06024 88.0193
206 8 0.0304713 6.11976 86.1633
207 8 2.06024 4.09 86.1633
209 8 0.0304713 4.09 88.0193
212 8 2.06024 6.11976 88.0193
446 8 4.09 6.11976 86.1633
447 8 6.11976 4.09 86.1633
449 8 4.09 4.09 88.0193
452 8 6.11976 6.11976 88.0193
90 8 0.0304713 2.06024 89.8777
91 8 2.06024 0.0304713 89.8777
93 8 0.0304713 0.0304713 91.726
96 8 2.06024 2.06024 91.726
330 8 4.09 2.06024 89.8777
331 8 6.11976 0.0304713 89.8777
333 8 4.09 0.0304713 91.726
336 8 6.11976 2.06024 91.726
210 8 0.0304713 6.11976 89.8777
211 8 2.06024 4.09 89.8777
213 8 0.0304713 4.09 91.726
216 8 2.06024 6.11976 91.726
450 8 4.09 6.11976 89.8777
451 8 6.11976 4.09 89.8777
453 8 4.09 4.09 91.726
456 8 6.11976 6.11976 91.726
94 8 0.0304713 2.06024 93.6353
95 8 2.06024 0.0304713 93.6353
97 9 0.0304713 0.0304713 95.5608
100 9 2.06024 2.06024 95.5608
334 8 4.09 2.06024 93.6353
335 8 6.11976 0.0304713 93.6353
337 9 4.09 0.0304713 95.5608
340 9 6.11976 2.06024 95.5608
214 8 0.0304713 6.11976 93.6353
215 8 2.06024 4.09 93.6353
217 9 0.0304713 4.09 95.5608
220 9 2.06024 6.11976 95.5608
454 8 4.09 6.11976 93.6353
455 8 6.11976 4.09 93.6353
457 9 4.09 4.09 95.5608
460 9 6.11976 6.11976 95.5608
98 9 0.0304713 2.06024 97.3317
99 9 2.06024 0.0304713 97.3317
101 9 0.0304713 0.0304713 99.2628
104 9 2.06024 2.06024 99.2628
338 9 4.09 2.06024 97.3317
339 9 6.11976 0.0304713 97.3317
341 9 4.09 0.0304713 99.2628
344 9 6.11976 2.06024 99.2628
218 9 0.0304713 6.11976 97.3317
219 9 2.06024 4.09 97.3317
221 9 0.0304713 4.09 99.2628
224 9 2.06024 6.11976 99.2628
458 9 4.09 6.11976 97.3317
459 9 6.11976 4.09 97.3317
461 9 4.09 4.09 99.2628
464 9 6.11976 6.11976 99.2628
102 9 0.0304713 2.06024 101.036
103 9 2.06024 0.0304713 101.036
105 9 0.0304713 0.0304713 102.988
108 9 2.06024 2.06024 102.988
342 9 4.09 2.06024 101.036
343 9 6.11976 0.0304713 101.036
345 9 4.09 0.0304713 102.988
348 9 6.11976 2.06024 102.988
222 9 0.0304713 6.11976 101.036
223 9 2.06024 4.09 101.036
225 9 0.0304713 4.09 102.988
228 9 2.06024 6.11976 102.988
462 9 4.09 6.11976 101.036
463 9 6.11976 4.09 101.036
465 9 4.09 4.09 102.988
468 9 6.11976 6.11976 102.988
106 9 0.0304713 2.06024 104.491
107 9 2.06024 0.0304713 104.491
109 10 0.0304713 0.0304713 106.336
112 10 2.06024 2.06024 106.336
346 9 4.09 2.06024 104.491
347 9 6.11976 0.0304713 104.491
349 10 4.09 0.0304713 106.336
352 10 6.11976 2.06024 106.336
226 9 0.0304713 6.11976 104.491
227 9 2.06024 4.09 104.491
229 10 0.0304713 4.09 106.336
232 10 2.06024 6.11976 106.336
466 9 4.09 6.11976 104.491
467 9 6.11976 4.09 104.491
469 10 4.09 4.09 106.336
472 10 6.11976 6.11976 106.336
110 10 0.0304713 2.06024 108.318
111 10 2.06024 0.0304713 108.318
113 10 0.0304713 0.0304713 110.437
116 10 2.06024 2.06024 110.437
350 10 4.09 2.06024 108.318
351 10 6.11976 0.0304713 108.318
353 10 4.09 0.0304713 110.437
356 10 6.11976 2.06024 110.437
230 10 0.0304713 6.11976 108.318
231 10 2.06024 4.09 108.318
233 10 0.0304713 4.09 110.437
236 10 2.06024 6.11976 110.437
470 10 4.09 6.11976 108.318
471 10 6.11976 4.09 108.318
473 10 4.09 4.09 110.437
476 10 6.11976 6.11976 110.437
114 10 0.0304713 2.06024 112.405
115 10 2.06024 0.0304713 112.405
354 10 4.09 2.06024 112.405
355 10 6.11976 0.0304713 112.405
234 10 0.0304713 6.11976 112.405
235 10 2.06024 4.09 112.405
474 10 4.09 6.11976 112.405
475 10 6.11976 4.09 112.405
117 10 0.0304713 0.0304713 114.59
118 10 0.0304713 2.06024 116.633
119 10 2.06024 0.0304713 116.633
120 10 2.06024 2.06024 114.59
357 10 4.09 0.0304713 114.59
358 10 4.09 2.06024 116.633
359 10 6.11976 0.0304713 116.633
360 10 6.11976 2.06024 114.59
237 10 0.0304713 4.09 114.59
238 10 0.0304713 6.11976 116.633
239 10 2.06024 4.09 116.633
240 10 2.06024 6.11976 114.59
477 10 4.09 4.09 114.59
478 10 4.09 6.11976 116.633
479 10 6.11976 4.09 116.633
480 10 6.11976 6.11976 114.59
ITEM: TIMESTEP
100
ITEM: NUMBER OF ATOMS
480
ITEM: BOX BOUNDS pp pp pp
1.2538423898533896e-01 8.0546157610146647e+00
1.2538423877507557e-01 8.0546157612249250e+00
-6.0380321820196459e+00 1.3873803218201968e+02
ITEM: ATOMS id type xu yu zu
1 1 0.125384 0.125384 3.05777
2 1 0.125384 2.10769 5.14276
3 1 2.10769 0.125384 5.14276
4 1 2.10769 2.10769 3.05777
241 1 4.09 0.125384 3.05777
242 1 4.09 2.10769 5.14276
243 1 6.07231 0.125384 5.14276
244 1 6.07231 2.10769 3.05777
121 1 0.125384 4.09 3.05777
122 1 0.125384 6.07231 5.14276
123 1 2.10769 4.09 5.14276
124 1 2.10769 6.07231 3.05777
361 1 4.09 4.09 3.05777
362 1 4.09 6.07231 5.14276
363 1 6.07231 4.09 5.14276
364 1 6.07231 6.07231 3.05777
5 1 0.125384 0.125384 7.17794
8 1 2.10769 2.10769 7.17794
245 1 4.09 0.125384 7.17794
248 1 6.07231 2.10769 7.17794
125 1 0.125384 4.09 7.17794
128 1 2.10769 6.07231 7.17794
365 1 4.09 4.09 7.17794
368 1 6.07231 6.07231 7.17794
6 1 0.125384 2.10769 9.14698
7 1 2.10769 0.125384 9.14698
9 1 0.125384 0.125384 11.0783
12 1 2.10769 2.10769 11.0783
246 1 4.09 2.10769 9.14698
247 1 6.07231 0.125384 9.14698
249 1 4.09 0.125384 11.0783
252 1 6.07231 2.10769 11.0783
126 1 0.125384 6.07231 9.14698
127 1 2.10769 4.09 9.14698
129 1 0.125384 4.09 11.0783
132 1 2.10769 6.07231 11.0783
366 1 4.09 6.07231 9.14698
367 1 6.07231 4.09 9.14698
369 1 4.09 4.09 11.0783
372 1 6.07231 6.07231 11.0783
10 1 0.125384 2.10769 13.0285
11 1 2.10769 0.125384 13.0285
13 2 0.125384 0.125384 14.9832
16 2 2.10769 2.10769 14.9832
250 1 4.09 2.10769 13.0285
251 1 6.07231 0.125384 13.0285
253 2 4.09 0.125384 14.9832
256 2 6.07231 2.10769 14.9832
130 1 0.125384 6.07231 13.0285
131 1 2.10769 4.09 13.0285
133 2 0.125384 4.09 14.9832
136 2 2.10769 6.07231 14.9832
370 1 4.09 6.07231 13.0285
371 1 6.07231 4.09 13.0285
373 2 4.09 4.09 14.9832
376 2 6.07231 6.07231 14.9832
14 2 0.125384 2.10769 17.0455
15 2 2.10769 0.125384 17.0455
17 2 0.125384 0.125384 19.0213
20 2 2.10769 2.10769 19.0213
254 2 4.09 2.10769 17.0455
255 2 6.07231 0.125384 17.0455
257 2 4.09 0.125384 19.0213
260 2 6.07231 2.10769 19.0213
134 2 0.125384 6.07231 17.0455
135 2 2.10769 4.09 17.0455
137 2 0.125384 4.09 19.0213
140 2 2.10769 6.07231 19.0213
374 2 4.09 6.07231 17.0455
375 2 6.07231 4.09 17.0455
377 2 4.09 4.09 19.0213
380 2 6.07231 6.07231 19.0213
18 2 0.125384 2.10769 21.0838
19 2 2.10769 0.125384 21.0838
21 2 0.125384 0.125384 23.1462
24 2 2.10769 2.10769 23.1462
258 2 4.09 2.10769 21.0838
259 2 6.07231 0.125384 21.0838
261 2 4.09 0.125384 23.1462
264 2 6.07231 2.10769 23.1462
138 2 0.125384 6.07231 21.0838
139 2 2.10769 4.09 21.0838
141 2 0.125384 4.09 23.1462
144 2 2.10769 6.07231 23.1462
378 2 4.09 6.07231 21.0838
379 2 6.07231 4.09 21.0838
381 2 4.09 4.09 23.1462
384 2 6.07231 6.07231 23.1462
22 2 0.125384 2.10769 25.3238
23 2 2.10769 0.125384 25.3238
25 3 0.125384 0.125384 27.1717
28 3 2.10769 2.10769 27.1717
262 2 4.09 2.10769 25.3238
263 2 6.07231 0.125384 25.3238
265 3 4.09 0.125384 27.1717
268 3 6.07231 2.10769 27.1717
142 2 0.125384 6.07231 25.3238
143 2 2.10769 4.09 25.3238
145 3 0.125384 4.09 27.1717
148 3 2.10769 6.07231 27.1717
382 2 4.09 6.07231 25.3238
383 2 6.07231 4.09 25.3238
385 3 4.09 4.09 27.1717
388 3 6.07231 6.07231 27.1717
26 3 0.125384 2.10769 28.8414
27 3 2.10769 0.125384 28.8414
29 3 0.125384 0.125384 30.6238
32 3 2.10769 2.10769 30.6238
266 3 4.09 2.10769 28.8414
267 3 6.07231 0.125384 28.8414
269 3 4.09 0.125384 30.6238
272 3 6.07231 2.10769 30.6238
146 3 0.125384 6.07231 28.8414
147 3 2.10769 4.09 28.8414
149 3 0.125384 4.09 30.6238
152 3 2.10769 6.07231 30.6238
386 3 4.09 6.07231 28.8414
387 3 6.07231 4.09 28.8414
389 3 4.09 4.09 30.6238
392 3 6.07231 6.07231 30.6238
30 3 0.125384 2.10769 32.5432
31 3 2.10769 0.125384 32.5432
33 3 0.125384 0.125384 34.482
36 3 2.10769 2.10769 34.482
270 3 4.09 2.10769 32.5432
271 3 6.07231 0.125384 32.5432
273 3 4.09 0.125384 34.482
276 3 6.07231 2.10769 34.482
150 3 0.125384 6.07231 32.5432
151 3 2.10769 4.09 32.5432
153 3 0.125384 4.09 34.482
156 3 2.10769 6.07231 34.482
390 3 4.09 6.07231 32.5432
391 3 6.07231 4.09 32.5432
393 3 4.09 4.09 34.482
396 3 6.07231 6.07231 34.482
34 3 0.125384 2.10769 36.4581
35 3 2.10769 0.125384 36.4581
37 4 0.125384 0.125384 38.314
40 4 2.10769 2.10769 38.314
274 3 4.09 2.10769 36.4581
275 3 6.07231 0.125384 36.4581
277 4 4.09 0.125384 38.314
280 4 6.07231 2.10769 38.314
154 3 0.125384 6.07231 36.4581
155 3 2.10769 4.09 36.4581
157 4 0.125384 4.09 38.314
160 4 2.10769 6.07231 38.314
394 3 4.09 6.07231 36.4581
395 3 6.07231 4.09 36.4581
397 4 4.09 4.09 38.314
400 4 6.07231 6.07231 38.314
38 4 0.125384 2.10769 40.2486
39 4 2.10769 0.125384 40.2486
41 4 0.125384 0.125384 42.2334
44 4 2.10769 2.10769 42.2334
278 4 4.09 2.10769 40.2486
279 4 6.07231 0.125384 40.2486
281 4 4.09 0.125384 42.2334
284 4 6.07231 2.10769 42.2334
158 4 0.125384 6.07231 40.2486
159 4 2.10769 4.09 40.2486
161 4 0.125384 4.09 42.2334
164 4 2.10769 6.07231 42.2334
398 4 4.09 6.07231 40.2486