ITEM: TIMESTEP
0
ITEM: NUMBER OF ATOMS
480
ITEM: BOX BOUNDS pp pp pp
1.4282800228429229e-01 8.0371719977157117e+00
1.3498693606908999e-01 8.0450130639309201e+00
-4.9781469460496339e+00 1.3767814694604971e+02
ITEM: ATOMS id type element xu yu zu
1 1 Ag 0.142828 0.134987 2.94099
4 1 Ag 2.11641 2.11249 2.94099
241 1 Ag 4.09 0.134987 2.94099
244 1 Ag 6.06359 2.11249 2.94099
121 1 Ag 0.142828 4.09 2.94099
124 1 Ag 2.11641 6.06751 2.94099
361 1 Ag 4.09 4.09 2.94099
364 1 Ag 6.06359 6.06751 2.94099
2 1 Ag 0.142828 2.11249 5.1178
3 1 Ag 2.11641 0.134987 5.1178
242 1 Ag 4.09 2.11249 5.1178
243 1 Ag 6.06359 0.134987 5.1178
122 1 Ag 0.142828 6.06751 5.1178
123 1 Ag 2.11641 4.09 5.1178
362 1 Ag 4.09 6.06751 5.1178
363 1 Ag 6.06359 4.09 5.1178
5 1 Ag 0.142828 0.134987 7.2888
8 1 Ag 2.11641 2.11249 7.2888
245 1 Ag 4.09 0.134987 7.2888
248 1 Ag 6.06359 2.11249 7.2888
125 1 Ag 0.142828 4.09 7.2888
128 1 Ag 2.11641 6.06751 7.2888
365 1 Ag 4.09 4.09 7.2888
368 1 Ag 6.06359 6.06751 7.2888
6 1 Ag 0.142828 2.11249 9.41836
7 1 Ag 2.11641 0.134987 9.41836
246 1 Ag 4.09 2.11249 9.41836
247 1 Ag 6.06359 0.134987 9.41836
126 1 Ag 0.142828 6.06751 9.41836
127 1 Ag 2.11641 4.09 9.41836
366 1 Ag 4.09 6.06751 9.41836
367 1 Ag 6.06359 4.09 9.41836
9 1 Ag 0.142828 0.134987 11.5333
12 1 Ag 2.11641 2.11249 11.5333
249 1 Ag 4.09 0.134987 11.5333
252 1 Ag 6.06359 2.11249 11.5333
129 1 Ag 0.142828 4.09 11.5333
132 1 Ag 2.11641 6.06751 11.5333
369 1 Ag 4.09 4.09 11.5333
372 1 Ag 6.06359 6.06751 11.5333
10 1 Ag 0.142828 2.11249 13.66
11 1 Ag 2.11641 0.134987 13.66
250 1 Ag 4.09 2.11249 13.66
251 1 Ag 6.06359 0.134987 13.66
130 1 Ag 0.142828 6.06751 13.66
131 1 Ag 2.11641 4.09 13.66
370 1 Ag 4.09 6.06751 13.66
371 1 Ag 6.06359 4.09 13.66
13 2 Au 0.142828 0.134987 15.8029
16 2 Au 2.11641 2.11249 15.8029
253 2 Au 4.09 0.134987 15.8029
256 2 Au 6.06359 2.11249 15.8029
133 2 Au 0.142828 4.09 15.8029
136 2 Au 2.11641 6.06751 15.8029
373 2 Au 4.09 4.09 15.8029
376 2 Au 6.06359 6.06751 15.8029
14 2 Au 0.142828 2.11249 18.0127
15 2 Au 2.11641 0.134987 18.0127
254 2 Au 4.09 2.11249 18.0127
255 2 Au 6.06359 0.134987 18.0127
134 2 Au 0.142828 6.06751 18.0127
135 2 Au 2.11641 4.09 18.0127
374 2 Au 4.09 6.06751 18.0127
375 2 Au 6.06359 4.09 18.0127
17 2 Au 0.142828 0.134987 20.1863
20 2 Au 2.11641 2.11249 20.1863
257 2 Au 4.09 0.134987 20.1863
260 2 Au 6.06359 2.11249 20.1863
137 2 Au 0.142828 4.09 20.1863
140 2 Au 2.11641 6.06751 20.1863
377 2 Au 4.09 4.09 20.1863
380 2 Au 6.06359 6.06751 20.1863
18 2 Au 0.142828 2.11249 22.3818
19 2 Au 2.11641 0.134987 22.3818
258 2 Au 4.09 2.11249 22.3818
259 2 Au 6.06359 0.134987 22.3818
138 2 Au 0.142828 6.06751 22.3818
139 2 Au 2.11641 4.09 22.3818
378 2 Au 4.09 6.06751 22.3818
379 2 Au 6.06359 4.09 22.3818
21 2 Au 0.142828 0.134987 24.592
24 2 Au 2.11641 2.11249 24.592
261 2 Au 4.09 0.134987 24.592
264 2 Au 6.06359 2.11249 24.592
141 2 Au 0.142828 4.09 24.592
144 2 Au 2.11641 6.06751 24.592
381 2 Au 4.09 4.09 24.592
384 2 Au 6.06359 6.06751 24.592
22 2 Au 0.142828 2.11249 26.8592
23 2 Au 2.11641 0.134987 26.8592
262 2 Au 4.09 2.11249 26.8592
263 2 Au 6.06359 0.134987 26.8592
142 2 Au 0.142828 6.06751 26.8592
143 2 Au 2.11641 4.09 26.8592
382 2 Au 4.09 6.06751 26.8592
383 2 Au 6.06359 4.09 26.8592
25 3 Cu 0.142828 0.134987 28.7455
28 3 Cu 2.11641 2.11249 28.7455
265 3 Cu 4.09 0.134987 28.7455
268 3 Cu 6.06359 2.11249 28.7455
145 3 Cu 0.142828 4.09 28.7455
148 3 Cu 2.11641 6.06751 28.7455
385 3 Cu 4.09 4.09 28.7455
388 3 Cu 6.06359 6.06751 28.7455
26 3 Cu 0.142828 2.11249 30.3483
27 3 Cu 2.11641 0.134987 30.3483
266 3 Cu 4.09 2.11249 30.3483
267 3 Cu 6.06359 0.134987 30.3483
146 3 Cu 0.142828 6.06751 30.3483
147 3 Cu 2.11641 4.09 30.3483
386 3 Cu 4.09 6.06751 30.3483
387 3 Cu 6.06359 4.09 30.3483
29 3 Cu 0.142828 0.134987 31.9575
32 3 Cu 2.11641 2.11249 31.9575
269 3 Cu 4.09 0.134987 31.9575
272 3 Cu 6.06359 2.11249 31.9575
149 3 Cu 0.142828 4.09 31.9575
152 3 Cu 2.11641 6.06751 31.9575
389 3 Cu 4.09 4.09 31.9575
392 3 Cu 6.06359 6.06751 31.9575
30 3 Cu 0.142828 2.11249 33.6175
31 3 Cu 2.11641 0.134987 33.6175
33 3 Cu 0.142828 0.134987 35.3085
36 3 Cu 2.11641 2.11249 35.3085
270 3 Cu 4.09 2.11249 33.6175
271 3 Cu 6.06359 0.134987 33.6175
273 3 Cu 4.09 0.134987 35.3085
276 3 Cu 6.06359 2.11249 35.3085
150 3 Cu 0.142828 6.06751 33.6175
151 3 Cu 2.11641 4.09 33.6175
153 3 Cu 0.142828 4.09 35.3085
156 3 Cu 2.11641 6.06751 35.3085
390 3 Cu 4.09 6.06751 33.6175
391 3 Cu 6.06359 4.09 33.6175
393 3 Cu 4.09 4.09 35.3085
396 3 Cu 6.06359 6.06751 35.3085
34 3 Cu 0.142828 2.11249 37.0713
35 3 Cu 2.11641 0.134987 37.0713
37 4 Ir 0.142828 0.134987 38.895
40 4 Ir 2.11641 2.11249 38.895
274 3 Cu 4.09 2.11249 37.0713
275 3 Cu 6.06359 0.134987 37.0713
277 4 Ir 4.09 0.134987 38.895
280 4 Ir 6.06359 2.11249 38.895
154 3 Cu 0.142828 6.06751 37.0713
155 3 Cu 2.11641 4.09 37.0713
157 4 Ir 0.142828 4.09 38.895
160 4 Ir 2.11641 6.06751 38.895
394 3 Cu 4.09 6.06751 37.0713
395 3 Cu 6.06359 4.09 37.0713
397 4 Ir 4.09 4.09 38.895
400 4 Ir 6.06359 6.06751 38.895
38 4 Ir 0.142828 2.11249 40.8164
39 4 Ir 2.11641 0.134987 40.8164
41 4 Ir 0.142828 0.134987 42.7854
44 4 Ir 2.11641 2.11249 42.7854
278 4 Ir 4.09 2.11249 40.8164
279 4 Ir 6.06359 0.134987 40.8164
281 4 Ir 4.09 0.134987 42.7854
284 4 Ir 6.06359 2.11249 42.7854
158 4 Ir 0.142828 6.06751 40.8164
159 4 Ir 2.11641 4.09 40.8164
161 4 Ir 0.142828 4.09 42.7854
164 4 Ir 2.11641 6.06751 42.7854
398 4 Ir 4.09 6.06751 40.8164
399 4 Ir 6.06359 4.09 40.8164
401 4 Ir 4.09 4.09 42.7854
404 4 Ir 6.06359 6.06751 42.7854
42 4 Ir 0.142828 2.11249 44.7545
43 4 Ir 2.11641 0.134987 44.7545
45 4 Ir 0.142828 0.134987 46.7381
48 4 Ir 2.11641 2.11249 46.7381
282 4 Ir 4.09 2.11249 44.7545
283 4 Ir 6.06359 0.134987 44.7545
285 4 Ir 4.09 0.134987 46.7381
288 4 Ir 6.06359 2.11249 46.7381
162 4 Ir 0.142828 6.06751 44.7545
163 4 Ir 2.11641 4.09 44.7545
165 4 Ir 0.142828 4.09 46.7381
168 4 Ir 2.11641 6.06751 46.7381
402 4 Ir 4.09 6.06751 44.7545
403 4 Ir 6.06359 4.09 44.7545
405 4 Ir 4.09 4.09 46.7381
408 4 Ir 6.06359 6.06751 46.7381
46 4 Ir 0.142828 2.11249 48.683
47 4 Ir 2.11641 0.134987 48.683
49 5 Ni 0.142828 0.134987 50.4422
52 5 Ni 2.11641 2.11249 50.4422
286 4 Ir 4.09 2.11249 48.683
287 4 Ir 6.06359 0.134987 48.683
289 5 Ni 4.09 0.134987 50.4422
292 5 Ni 6.06359 2.11249 50.4422
166 4 Ir 0.142828 6.06751 48.683
167 4 Ir 2.11641 4.09 48.683
169 5 Ni 0.142828 4.09 50.4422
172 5 Ni 2.11641 6.06751 50.4422
406 4 Ir 4.09 6.06751 48.683
407 4 Ir 6.06359 4.09 48.683
409 5 Ni 4.09 4.09 50.4422
412 5 Ni 6.06359 6.06751 50.4422
50 5 Ni 0.142828 2.11249 52.1094
51 5 Ni 2.11641 0.134987 52.1094
53 5 Ni 0.142828 0.134987 53.7785
56 5 Ni 2.11641 2.11249 53.7785
290 5 Ni 4.09 2.11249 52.1094
291 5 Ni 6.06359 0.134987 52.1094
293 5 Ni 4.09 0.134987 53.7785
296 5 Ni 6.06359 2.11249 53.7785
170 5 Ni 0.142828 6.06751 52.1094
171 5 Ni 2.11641 4.09 52.1094
173 5 Ni 0.142828 4.09 53.7785
176 5 Ni 2.11641 6.06751 53.7785
410 5 Ni 4.09 6.06751 52.1094
411 5 Ni 6.06359 4.09 52.1094
413 5 Ni 4.09 4.09 53.7785
416 5 Ni 6.06359 6.06751 53.7785
54 5 Ni 0.142828 2.11249 55.5118
55 5 Ni 2.11641 0.134987 55.5118
294 5 Ni 4.09 2.11249 55.5118
295 5 Ni 6.06359 0.134987 55.5118
174 5 Ni 0.142828 6.06751 55.5118
175 5 Ni 2.11641 4.09 55.5118
414 5 Ni 4.09 6.06751 55.5118
415 5 Ni 6.06359 4.09 55.5118
57 5 Ni 0.142828 0.134987 57.1302
60 5 Ni 2.11641 2.11249 57.1302
297 5 Ni 4.09 0.134987 57.1302
300 5 Ni 6.06359 2.11249 57.1302
177 5 Ni 0.142828 4.09 57.1302
180 5 Ni 2.11641 6.06751 57.1302
417 5 Ni 4.09 4.09 57.1302
420 5 Ni 6.06359 6.06751 57.1302
58 5 Ni 0.142828 2.11249 58.6787
59 5 Ni 2.11641 0.134987 58.6787
298 5 Ni 4.09 2.11249 58.6787
299 5 Ni 6.06359 0.134987 58.6787
178 5 Ni 0.142828 6.06751 58.6787
179 5 Ni 2.11641 4.09 58.6787
418 5 Ni 4.09 6.06751 58.6787
419 5 Ni 6.06359 4.09 58.6787
61 6 Pd 0.142828 0.134987 60.5343
64 6 Pd 2.11641 2.11249 60.5343
301 6 Pd 4.09 0.134987 60.5343
304 6 Pd 6.06359 2.11249 60.5343
181 6 Pd 0.142828 4.09 60.5343
184 6 Pd 2.11641 6.06751 60.5343
421 6 Pd 4.09 4.09 60.5343
424 6 Pd 6.06359 6.06751 60.5343
62 6 Pd 0.142828 2.11249 62.6832
63 6 Pd 2.11641 0.134987 62.6832
302 6 Pd 4.09 2.11249 62.6832
303 6 Pd 6.06359 0.134987 62.6832
182 6 Pd 0.142828 6.06751 62.6832
183 6 Pd 2.11641 4.09 62.6832
422 6 Pd 4.09 6.06751 62.6832
423 6 Pd 6.06359 4.09 62.6832
65 6 Pd 0.142828 0.134987 64.8055
68 6 Pd 2.11641 2.11249 64.8055
305 6 Pd 4.09 0.134987 64.8055
308 6 Pd 6.06359 2.11249 64.8055
185 6 Pd 0.142828 4.09 64.8055
188 6 Pd 2.11641 6.06751 64.8055
425 6 Pd 4.09 4.09 64.8055
428 6 Pd 6.06359 6.06751 64.8055
66 6 Pd 0.142828 2.11249 66.8842
67 6 Pd 2.11641 0.134987 66.8842
306 6 Pd 4.09 2.11249 66.8842
307 6 Pd 6.06359 0.134987 66.8842
186 6 Pd 0.142828 6.06751 66.8842
187 6 Pd 2.11641 4.09 66.8842
426 6 Pd 4.09 6.06751 66.8842
427 6 Pd 6.06359 4.09 66.8842
69 6 Pd 0.142828 0.134987 68.9648
72 6 Pd 2.11641 2.11249 68.9648
309 6 Pd 4.09 0.134987 68.9648
312 6 Pd 6.06359 2.11249 68.9648
189 6 Pd 0.142828 4.09 68.9648
192 6 Pd 2.11641 6.06751 68.9648
429 6 Pd 4.09 4.09 68.9648
432 6 Pd 6.06359 6.06751 68.9648
70 6 Pd 0.142828 2.11249 71.0057
71 6 Pd 2.11641 0.134987 71.0057
310 6 Pd 4.09 2.11249 71.0057
311 6 Pd 6.06359 0.134987 71.0057
190 6 Pd 0.142828 6.06751 71.0057
191 6 Pd 2.11641 4.09 71.0057
430 6 Pd 4.09 6.06751 71.0057
431 6 Pd 6.06359 4.09 71.0057
73 7 Pt 0.142828 0.134987 73.0098
76 7 Pt 2.11641 2.11249 73.0098
313 7 Pt 4.09 0.134987 73.0098
316 7 Pt 6.06359 2.11249 73.0098
193 7 Pt 0.142828 4.09 73.0098
196 7 Pt 2.11641 6.06751 73.0098
433 7 Pt 4.09 4.09 73.0098
436 7 Pt 6.06359 6.06751 73.0098
74 7 Pt 0.142828 2.11249 75.0336
75 7 Pt 2.11641 0.134987 75.0336
314 7 Pt 4.09 2.11249 75.0336
315 7 Pt 6.06359 0.134987 75.0336
194 7 Pt 0.142828 6.06751 75.0336
195 7 Pt 2.11641 4.09 75.0336
434 7 Pt 4.09 6.06751 75.0336
435 7 Pt 6.06359 4.09 75.0336
77 7 Pt 0.142828 0.134987 77.0449
80 7 Pt 2.11641 2.11249 77.0449
317 7 Pt 4.09 0.134987 77.0449
320 7 Pt 6.06359 2.11249 77.0449
197 7 Pt 0.142828 4.09 77.0449
200 7 Pt 2.11641 6.06751 77.0449
437 7 Pt 4.09 4.09 77.0449
440 7 Pt 6.06359 6.06751 77.0449
78 7 Pt 0.142828 2.11249 79.0409
79 7 Pt 2.11641 0.134987 79.0409
318 7 Pt 4.09 2.11249 79.0409
319 7 Pt 6.06359 0.134987 79.0409
198 7 Pt 0.142828 6.06751 79.0409
199 7 Pt 2.11641 4.09 79.0409
438 7 Pt 4.09 6.06751 79.0409
439 7 Pt 6.06359 4.09 79.0409
81 7 Pt 0.142828 0.134987 81.0438
84 7 Pt 2.11641 2.11249 81.0438
321 7 Pt 4.09 0.134987 81.0438
324 7 Pt 6.06359 2.11249 81.0438
201 7 Pt 0.142828 4.09 81.0438
204 7 Pt 2.11641 6.06751 81.0438
441 7 Pt 4.09 4.09 81.0438
444 7 Pt 6.06359 6.06751 81.0438
82 7 Pt 0.142828 2.11249 83.028
83 7 Pt 2.11641 0.134987 83.028
322 7 Pt 4.09 2.11249 83.028
323 7 Pt 6.06359 0.134987 83.028
202 7 Pt 0.142828 6.06751 83.028
203 7 Pt 2.11641 4.09 83.028
442 7 Pt 4.09 6.06751 83.028
443 7 Pt 6.06359 4.09 83.028
85 8 Rh 0.142828 0.134987 84.9059
88 8 Rh 2.11641 2.11249 84.9059
325 8 Rh 4.09 0.134987 84.9059
328 8 Rh 6.06359 2.11249 84.9059
205 8 Rh 0.142828 4.09 84.9059
208 8 Rh 2.11641 6.06751 84.9059
445 8 Rh 4.09 4.09 84.9059
448 8 Rh 6.06359 6.06751 84.9059
86 8 Rh 0.142828 2.11249 86.7121
87 8 Rh 2.11641 0.134987 86.7121
89 8 Rh 0.142828 0.134987 88.5273
92 8 Rh 2.11641 2.11249 88.5273
326 8 Rh 4.09 2.11249 86.7121
327 8 Rh 6.06359 0.134987 86.7121
329 8 Rh 4.09 0.134987 88.5273
332 8 Rh 6.06359 2.11249 88.5273
206 8 Rh 0.142828 6.06751 86.7121
207 8 Rh 2.11641 4.09 86.7121
209 8 Rh 0.142828 4.09 88.5273
212 8 Rh 2.11641 6.06751 88.5273
446 8 Rh 4.09 6.06751 86.7121
447 8 Rh 6.06359 4.09 86.7121
449 8 Rh 4.09 4.09 88.5273
452 8 Rh 6.06359 6.06751 88.5273
90 8 Rh 0.142828 2.11249 90.3282
91 8 Rh 2.11641 0.134987 90.3282
93 8 Rh 0.142828 0.134987 92.1269
96 8 Rh 2.11641 2.11249 92.1269
330 8 Rh 4.09 2.11249 90.3282
331 8 Rh 6.06359 0.134987 90.3282
333 8 Rh 4.09 0.134987 92.1269
336 8 Rh 6.06359 2.11249 92.1269
210 8 Rh 0.142828 6.06751 90.3282
211 8 Rh 2.11641 4.09 90.3282
213 8 Rh 0.142828 4.09 92.1269
216 8 Rh 2.11641 6.06751 92.1269
450 8 Rh 4.09 6.06751 90.3282
451 8 Rh 6.06359 4.09 90.3282
453 8 Rh 4.09 4.09 92.1269
456 8 Rh 6.06359 6.06751 92.1269
94 8 Rh 0.142828 2.11249 93.9416
95 8 Rh 2.11641 0.134987 93.9416
97 9 Ru 0.142828 0.134987 95.7807
100 9 Ru 2.11641 2.11249 95.7807
334 8 Rh 4.09 2.11249 93.9416
335 8 Rh 6.06359 0.134987 93.9416
337 9 Ru 4.09 0.134987 95.7807
340 9 Ru 6.06359 2.11249 95.7807
214 8 Rh 0.142828 6.06751 93.9416
215 8 Rh 2.11641 4.09 93.9416
217 9 Ru 0.142828 4.09 95.7807
220 9 Ru 2.11641 6.06751 95.7807
454 8 Rh 4.09 6.06751 93.9416
455 8 Rh 6.06359 4.09 93.9416
457 9 Ru 4.09 4.09 95.7807
460 9 Ru 6.06359 6.06751 95.7807
98 9 Ru 0.142828 2.11249 97.5169
99 9 Ru 2.11641 0.134987 97.5169
101 9 Ru 0.142828 0.134987 99.3689
104 9 Ru 2.11641 2.11249 99.3689
338 9 Ru 4.09 2.11249 97.5169
339 9 Ru 6.06359 0.134987 97.5169
341 9 Ru 4.09 0.134987 99.3689
344 9 Ru 6.06359 2.11249 99.3689
218 9 Ru 0.142828 6.06751 97.5169
219 9 Ru 2.11641 4.09 97.5169
221 9 Ru 0.142828 4.09 99.3689
224 9 Ru 2.11641 6.06751 99.3689
458 9 Ru 4.09 6.06751 97.5169
459 9 Ru 6.06359 4.09 97.5169
461 9 Ru 4.09 4.09 99.3689
464 9 Ru 6.06359 6.06751 99.3689
102 9 Ru 0.142828 2.11249 101.142
103 9 Ru 2.11641 0.134987 101.142
105 9 Ru 0.142828 0.134987 103.001
108 9 Ru 2.11641 2.11249 103.001
342 9 Ru 4.09 2.11249 101.142
343 9 Ru 6.06359 0.134987 101.142
345 9 Ru 4.09 0.134987 103.001
348 9 Ru 6.06359 2.11249 103.001
222 9 Ru 0.142828 6.06751 101.142
223 9 Ru 2.11641 4.09 101.142
225 9 Ru 0.142828 4.09 103.001
228 9 Ru 2.11641 6.06751 103.001
462 9 Ru 4.09 6.06751 101.142
463 9 Ru 6.06359 4.09 101.142
465 9 Ru 4.09 4.09 103.001
468 9 Ru 6.06359 6.06751 103.001
106 9 Ru 0.142828 2.11249 104.667
107 9 Ru 2.11641 0.134987 104.667
346 9 Ru 4.09 2.11249 104.667
347 9 Ru 6.06359 0.134987 104.667
226 9 Ru 0.142828 6.06751 104.667
227 9 Ru 2.11641 4.09 104.667
466 9 Ru 4.09 6.06751 104.667
467 9 Ru 6.06359 4.09 104.667
109 10 Sc 0.142828 0.134987 106.628
112 10 Sc 2.11641 2.11249 106.628
349 10 Sc 4.09 0.134987 106.628
352 10 Sc 6.06359 2.11249 106.628
229 10 Sc 0.142828 4.09 106.628
232 10 Sc 2.11641 6.06751 106.628
469 10 Sc 4.09 4.09 106.628
472 10 Sc 6.06359 6.06751 106.628
110 10 Sc 0.142828 2.11249 108.924
111 10 Sc 2.11641 0.134987 108.924
350 10 Sc 4.09 2.11249 108.924
351 10 Sc 6.06359 0.134987 108.924
230 10 Sc 0.142828 6.06751 108.924
231 10 Sc 2.11641 4.09 108.924
470 10 Sc 4.09 6.06751 108.924
471 10 Sc 6.06359 4.09 108.924
113 10 Sc 0.142828 0.134987 111.614
116 10 Sc 2.11641 2.11249 111.614
353 10 Sc 4.09 0.134987 111.614
356 10 Sc 6.06359 2.11249 111.614
233 10 Sc 0.142828 4.09 111.614
236 10 Sc 2.11641 6.06751 111.614
473 10 Sc 4.09 4.09 111.614
476 10 Sc 6.06359 6.06751 111.614
114 10 Sc 0.142828 2.11249 113.967
115 10 Sc 2.11641 0.134987 113.967
354 10 Sc 4.09 2.11249 113.967
355 10 Sc 6.06359 0.134987 113.967
234 10 Sc 0.142828 6.06751 113.967
235 10 Sc 2.11641 4.09 113.967
474 10 Sc 4.09 6.06751 113.967
475 10 Sc 6.06359 4.09 113.967
117 10 Sc 0.142828 0.134987 116.873
120 10 Sc 2.11641 2.11249 116.873
357 10 Sc 4.09 0.134987 116.873
360 10 Sc 6.06359 2.11249 116.873
237 10 Sc 0.142828 4.09 116.873
240 10 Sc 2.11641 6.06751 116.873
477 10 Sc 4.09 4.09 116.873
480 10 Sc 6.06359 6.06751 116.873
118 10 Sc 0.142828 2.11249 119.149
119 10 Sc 2.11641 0.134987 119.149
358 10 Sc 4.09 2.11249 119.149
359 10 Sc 6.06359 0.134987 119.149
238 10 Sc 0.142828 6.06751 119.149
239 10 Sc 2.11641 4.09 119.149
478 10 Sc 4.09 6.06751 119.149
479 10 Sc 6.06359 4.09 119.149
ITEM: TIMESTEP
50
ITEM: NUMBER OF ATOMS
480
ITEM: BOX BOUNDS pp pp pp
1.3349297924153403e-01 8.0465070207584688e+00
1.1299253859896297e-01 8.0670074614010403e+00
-5.3499805519782484e+00 1.3804998055197828e+02
ITEM: ATOMS id type element xu yu zu
1 7 Pt 0.0495959 0.125643 2.69114
4 10 Sc 1.96243 1.7461 2.48944
241 7 Pt 4.06252 0.0145128 2.66247
244 1 Ag 6.05738 1.96771 2.41042
121 1 Ag 0.102662 4.00264 2.42308
124 10 Sc 2.21403 6.14657 2.56438
361 1 Ag 3.81693 3.89661 2.60296
364 1 Ag 6.2004 6.14733 2.65458
2 1 Ag 0.149205 2.08089 4.85003
3 1 Ag 1.98313 -0.161717 4.78596
242 1 Ag 3.96741 2.13256 4.78857
243 10 Sc 5.97857 0.295013 4.63277
122 1 Ag 0.0788779 5.97443 4.78561
123 6 Pd 2.0131 4.10833 4.63151
362 2 Au 4.03666 6.13975 4.85084
363 1 Ag 5.9993 4.01126 4.55135
5 1 Ag 0.191747 0.0979807 6.84998
8 5 Ni 1.95222 1.96472 6.83191
245 6 Pd 4.10781 0.312366 7.14345
248 1 Ag 6.11847 2.09656 6.99268
125 1 Ag 0.352835 4.21382 6.78338
128 6 Pd 2.00924 6.31284 7.00507
365 1 Ag 3.9514 4.15949 6.73196
368 2 Au 6.05261 6.11167 7.02639
6 1 Ag 0.217337 2.17954 9.07325
7 1 Ag 2.06901 0.167228 9.12896
246 1 Ag 4.10571 2.26045 9.0865
247 2 Au 6.19833 0.0100075 9.13226
126 1 Ag 0.103497 6.29871 9.03146
127 1 Ag 2.0481 4.14593 9.26004
366 10 Sc 4.20077 5.86035 8.9175
367 1 Ag 6.19571 4.04131 9.01557
9 1 Ag 0.0514149 -0.014149 11.2269
12 1 Ag 2.11502 2.0735 11.2179
249 1 Ag 4.25095 0.162804 11.1577
252 1 Ag 6.03045 2.02527 11.0403
129 1 Ag -0.125693 3.99393 11.1924
132 1 Ag 2.09325 6.28276 10.9238
369 2 Au 4.09836 4.03704 11.2369
372 1 Ag 6.20324 6.10659 11.2931
10 10 Sc 0.193882 2.04625 13.2869
11 1 Ag 2.13179 0.0502802 13.243
250 1 Ag 4.13437 2.11576 13.3476
251 1 Ag 6.12741 0.074993 13.4258
130 10 Sc 0.366666 6.10247 13.5326
131 6 Pd 2.0016 4.15862 13.4575
370 1 Ag 4.02746 6.10421 13.4587
371 1 Ag 6.04759 4.10874 13.285
13 2 Au 0.0334406 0.0122802 15.5094
16 2 Au 2.10745 2.03623 15.6917
253 2 Au 4.17912 0.0512975 15.5785
256 1 Ag 5.99269 2.09968 15.6186
133 2 Au 0.173233 4.14284 15.5595
136 2 Au 2.17368 6.08105 15.4174
373 1 Ag 4.16113 4.10592 15.4379
376 3 Cu 6.17785 6.31981 15.6245
14 2 Au -0.0693474 2.05384 17.7412
15 6 Pd 2.08795 0.176334 17.834
254 2 Au 4.08708 2.14503 17.8176
255 10 Sc 6.02383 -0.127905 17.9862
134 7 Pt 0.146426 6.0828 18.0313
135 1 Ag 1.97972 4.18939 17.7049
374 8 Rh 4.12294 6.12759 17.6891
375 6 Pd 6.0956 4.29403 17.6397
17 6 Pd 0.164023 0.271821 19.8153
20 2 Au 2.15405 1.95298 19.9341
257 2 Au 4.29027 0.047167 19.8533
260 4 Ir 5.96137 2.11059 19.9053
137 2 Au 0.146799 4.00702 19.7814
140 10 Sc 1.97595 6.23359 20.0011
377 2 Au 4.13389 4.10458 19.7943
380 7 Pt 6.11777 6.15545 20.1733
18 7 Pt 0.0933249 2.16976 22.0515
19 1 Ag 2.00854 0.238567 22.1529
258 10 Sc 4.01498 2.26155 21.9772
259 10 Sc 6.27148 0.262927 21.9611
138 2 Au 0.0413427 6.18608 22.1125
139 6 Pd 2.30496 4.10863 22.0083
378 2 Au 4.17736 6.13978 22.2571
379 2 Au 6.01727 4.00517 22.0459
21 2 Au 0.0529482 0.196922 24.3316
24 2 Au 2.18227 2.19763 24.456
261 1 Ag 4.20142 0.451309 24.1951
264 6 Pd 6.0977 2.3491 24.3782
141 10 Sc 0.0963072 3.79156 24.4102
144 10 Sc 2.23846 6.29801 24.4336
381 2 Au 3.97491 4.08888 24.4635
384 2 Au 5.94514 6.0103 24.4279
22 6 Pd 0.110337 2.2218 26.5869
23 2 Au 2.07839 0.132645 26.5882
262 2 Au 4.26669 2.09168 26.7916
263 2 Au 6.14854 0.164331 26.5871
142 2 Au 0.0507549 6.04998 26.544
143 6 Pd 2.26178 4.22239 26.7185
382 2 Au 4.054 5.94412 26.6024
383 2 Au 5.97788 4.03726 26.6575
25 3 Cu 0.202155 0.297677 28.3705
28 10 Sc 1.97004 2.24789 28.3241
265 3 Cu 3.7285 -0.00771605 28.515
268 3 Cu 6.14431 1.961 28.7543
145 3 Cu 0.129154 4.07272 28.5244
148 3 Cu 2.22011 6.00172 28.5687
385 3 Cu 4.25378 4.13128 28.6878
388 3 Cu 5.91153 6.32426 28.3585
26 3 Cu 0.0753928 1.98178 30.059
27 5 Ni 1.94311 0.0433173 30.045
266 6 Pd 3.96346 2.12081 30.0217
267 2 Au 6.13771 0.149663 30.3683
146 7 Pt 0.0748772 6.01876 30.0752
147 3 Cu 2.02875 4.26652 30.3494
386 5 Ni 4.25343 6.21573 29.8801
387 5 Ni 6.14708 4.06084 29.9589
29 10 Sc 0.477003 0.208877 31.9354
32 7 Pt 1.95151 2.16769 31.7655
269 3 Cu 4.00668 0.331826 31.8129
272 3 Cu 5.90998 2.16272 31.904
149 3 Cu -0.161082 3.92342 31.6304
152 3 Cu 2.28931 6.07495 31.6011
389 7 Pt 4.10482 4.0863 31.8951
392 3 Cu 6.12709 6.1803 31.9102
30 5 Ni 0.120563 1.91874 33.5762
31 3 Cu 2.01128 0.115609 33.4609
33 3 Cu 0.122535 0.0847902 35.3251
36 5 Ni 2.2696 1.76293 35.0579
270 3 Cu 3.94792 1.79267 33.5099
271 5 Ni 6.12568 0.156179 33.3189
273 3 Cu 4.13544 -0.0169176 35.3192
276 6 Pd 6.20066 2.04229 35.1433
150 6 Pd 0.318647 6.1137 33.5319
151 3 Cu 1.80885 4.02501 33.2759
153 2 Au 0.213611 4.01417 35.1095
156 3 Cu 2.06689 6.18216 35.2837
390 7 Pt 4.03275 6.04821 33.5676
391 5 Ni 6.00101 4.10982 33.3499
393 10 Sc 3.99163 4.14181 35.0999
396 6 Pd 6.24515 6.07101 35.201
34 3 Cu 0.197236 1.85852 37.0582
35 3 Cu 2.2033 0.002393 36.8774
37 8 Rh -0.17302 0.021305 38.9432
40 9 Ru 2.1963 2.04452 38.8763
274 3 Cu 4.26073 2.0076 36.8588
275 3 Cu 5.98181 0.0024029 36.9253
277 10 Sc 4.06084 0.061273 38.7953
280 4 Ir 6.01915 1.92263 38.9655
154 3 Cu 0.265267 5.87613 36.8516
155 7 Pt 2.18084 4.04023 37.0771
157 10 Sc 0.408463 3.88834 38.9398
160 4 Ir 2.12119 6.04387 38.7289
394 6 Pd 4.29778 6.03984 36.997
395 3 Cu 6.11961 4.02436 36.8609
397 9 Ru 4.21124 3.99373 38.8045
400 4 Ir 6.0451 5.92325 38.7264
38 4 Ir 0.0923266 2.34918 40.8454
39 4 Ir 2.01734 0.168679 40.5332
41 4 Ir 0.0601813 0.0961256 42.7534
44 9 Ru 2.12462 2.06717 42.5835
278 4 Ir 4.09202 2.26074 40.7572
279 10 Sc 6.34254 0.171298 41.0722
281 4 Ir 4.02346 0.306102 42.6488
284 5 Ni 5.99249 2.15414 42.6823
158 4 Ir 0.214591 6.08722 40.6516
159 8 Rh 2.31353 4.06592 40.5296
161 4 Ir 0.166605 4.15455 42.7249
164 4 Ir 1.89481 6.23955 42.5837
398 4 Ir 4.03667 6.07395 40.6617
399 4 Ir 6.06206 4.10676 40.6651
401 4 Ir 4.16651 4.00767 42.664
404 5 Ni 6.24091 5.88373 42.6519
42 4 Ir 0.12954 2.04796 44.653
43 9 Ru 2.28093 0.138963 44.7626
45 9 Ru 0.123796 0.233014 46.5964
48 9 Ru 2.13317 2.00768 46.4197
282 4 Ir 4.07934 2.14705 44.7548
283 4 Ir 6.13067 0.0880561 44.5478
285 4 Ir 4.11495 0.0970472 46.5792
288 9 Ru 6.20155 1.87637 46.7778
162 8 Rh 0.0392703 6.15627 44.8661
163 4 Ir 2.223 4.11552 44.5112
165 4 Ir 0.299712 4.01336 46.6464
168 4 Ir 1.94839 6.06822 46.6782
402 8 Rh 3.88702 6.01919 44.5865
403 4 Ir 5.98297 4.10191 44.7677
405 10 Sc 4.01251 4.05513 47.0062
408 4 Ir 5.9262 5.97198 46.408
46 4 Ir 0.0798702 2.05795 48.5283
47 10 Sc 2.10545 0.0768748 48.5688
49 5 Ni -0.0281121 0.0495304 50.2607
52 5 Ni 1.9324 2.06953 50.1557
286 8 Rh 4.14079 1.96571 48.6726
287 4 Ir 6.11837 0.161961 48.6766
289 5 Ni 4.2149 0.0573995 50.4895
292 3 Cu 6.30108 2.02 50.4938
166 4 Ir 0.125674 6.0904 48.5416
167 4 Ir 1.95097 4.08091 48.6406
169 5 Ni 0.148491 3.98625 50.3709
172 5 Ni 2.26906 5.98369 50.3163
406 4 Ir 4.16178 6.04667 48.4858
407 4 Ir 6.14474 4.0221 48.5
409 5 Ni 4.02699 4.09682 50.5154
412 5 Ni 5.8621 6.13262 50.0971
50 5 Ni 0.0919576 2.11433 51.9136
51 7 Pt 2.21637 0.02537 51.8745
53 6 Pd 0.0826081 0.254954 53.6305
56 2 Au 2.22225 2.15067 53.6816
290 5 Ni 4.08442 2.19106 51.883
291 5 Ni 5.98502 0.225455 51.928
293 5 Ni 4.12361 0.242064 53.7474
296 10 Sc 6.19772 2.17868 53.7438
170 7 Pt 0.117767 5.95337 51.9017
171 5 Ni 2.03534 4.06639 52.0874
173 5 Ni 0.0714028 3.96829 53.8335
176 5 Ni 2.28758 5.87599 53.8019
410 5 Ni 4.15686 6.06054 52.0296
411 8 Rh 5.92828 4.21876 51.9569
413 5 Ni 4.08046 4.06941 53.6646
416 4 Ir 5.9958 6.18969 53.765
54 5 Ni 0.337395 1.96693 55.5661
55 5 Ni 2.11527 -0.130071 55.4464
294 5 Ni 4.25359 2.27532 55.2987
295 6 Pd 5.95316 0.307887 55.6412
174 5 Ni 0.210207 5.9628 55.2891
175 7 Pt 2.0037 4.14121 55.4849
414 5 Ni 4.10935 5.9897 55.2306
415 5 Ni 6.10339 4.06922 55.3273
57 5 Ni 0.0783113 0.123356 57.0483
60 5 Ni 2.10735 2.10164 57.0671
297 5 Ni 4.02083 -0.0760297 57.1133
300 5 Ni 6.19764 2.05279 57.1459
177 5 Ni 0.185884 3.77465 57.0501
180 3 Cu 2.39043 6.05316 57.0813
417 5 Ni 4.05847 3.94476 57.1499
420 6 Pd 5.94185 5.99512 56.8271
58 5 Ni -0.00242799 1.96795 58.5446
59 7 Pt 2.13912 -0.127214 58.6772
298 7 Pt 4.14481 2.13477 58.5972
299 5 Ni 5.93076 0.109717 58.5085
178 3 Cu 0.104398 5.89417 58.5847
179 5 Ni 1.96188 4.15707 58.6196
418 3 Cu 4.29452 6.11219 58.8629
419 5 Ni 6.16492 3.97121 58.574
61 2 Au 0.152435 0.126291 60.6619
64 1 Ag 2.03073 2.16473 60.5607
301 6 Pd 4.11461 -6.80913e-05 60.5703
304 6 Pd 6.07272 2.06636 60.6632
181 6 Pd 0.078342 4.04548 60.3366
184 5 Ni 2.1479 5.82642 60.2951
421 6 Pd 4.23398 3.98194 60.4588
424 6 Pd 6.22751 5.96964 60.6893
62 6 Pd 0.255992 2.32167 62.8272
63 3 Cu 2.06741 0.0551759 62.465
302 3 Cu 4.33903 2.27889 62.8401
303 6 Pd 5.91124 0.210147 62.719
182 2 Au 0.124054 6.16546 62.6344
183 6 Pd 2.32218 3.97927 62.8005
422 10 Sc 4.26409 5.91054 62.2233
423 6 Pd 5.76912 4.13183 62.8193
65 1 Ag 0.0296151 0.20157 64.9038
68 10 Sc 2.04356 2.26254 64.7334
305 10 Sc 4.39156 -0.166408 64.8308
308 1 Ag 6.04351 2.2029 65.0098
185 6 Pd 0.239097 4.23817 64.7535
188 6 Pd 2.24567 6.10296 64.741
425 3 Cu 3.92663 4.19237 64.7178
428 6 Pd 6.14586 5.97428 64.8731
66 6 Pd 0.114541 2.06571 66.7811
67 6 Pd 2.12603 -0.0761121 66.754
306 6 Pd 4.09316 2.1345 66.7756
307 6 Pd 5.96684 0.011867 66.8922
186 6 Pd 0.0889965 5.9544 66.8411
187 6 Pd 2.09242 4.00408 66.8935
426 10 Sc 3.92884 5.882 67.19
427 3 Cu 6.24519 4.20792 66.743
69 2 Au 0.156487 0.156733 68.9179
72 6 Pd 2.34767 1.99734 69.0018
309 6 Pd 4.08428 0.0186741 69.0128
312 2 Au 6.12404 2.00785 68.8325
189 6 Pd -0.0219114 4.08829 68.9095
192 6 Pd 2.2657 5.96004 69.0615
429 7 Pt 4.12108 4.06821 68.9349
432 7 Pt 6.04565 5.93663 69.0793
70 10 Sc 0.0150842 1.75732 71.0645
71 2 Au 2.14229 0.109056 71.0897
310 6 Pd 4.05003 2.13322 71.2171
311 6 Pd 5.97886 -0.0384684 71.0524
190 1 Ag 0.141977 6.23185 71.1821
191 10 Sc 2.16287 3.93389 70.7635
430 10 Sc 4.29322 6.11503 71.2051
431 2 Au 6.11629 4.10998 71.1919
73 7 Pt 0.0829362 0.0313425 73.0652
76 7 Pt 1.98939 2.29551 73.1218
313 3 Cu 4.31132 0.0825912 73.0906
316 7 Pt 5.91775 2.08566 73.0249
193 3 Cu 0.234362 4.00712 72.938
196 2 Au 2.08686 6.12163 73.0588
433 7 Pt 4.02581 4.11421 73.1226
436 7 Pt 5.9022 5.9957 73.1793
74 7 Pt 0.0818189 2.21218 74.9416
75 2 Au 2.25741 0.289753 75.1527
314 5 Ni 4.12968 1.90399 75.1539
315 3 Cu 6.08036 0.318475 74.9435
194 3 Cu 0.215927 6.27501 75.1655
195 7 Pt 2.04944 4.16874 75.2212
434 7 Pt 3.98518 6.15557 75.2994
435 10 Sc 6.39105 3.90154 74.8101
77 7 Pt 0.0553074 0.0323179 77.1521
80 7 Pt 2.10244 2.01561 77.0821
317 3 Cu 4.06455 0.365337 77.0411
320 7 Pt 6.08404 2.06401 77.0995
197 7 Pt 0.0556324 4.20011 77.1238
200 10 Sc 2.24812 6.07794 77.1492
437 7 Pt 4.22575 4.16487 77.1357
440 10 Sc 6.04194 6.04979 77.3844
78 10 Sc 0.0585564 2.03321 79.0299
79 7 Pt 2.13802 0.0304263 79.2443
318 5 Ni 3.97308 2.26765 78.7499
319 7 Pt 6.05059 0.111619 79.1215
198 8 Rh -0.019073 6.14837 79.2158
199 7 Pt 2.02827 3.92477 79.1746
438 6 Pd 4.03035 6.13605 79.2497
439 7 Pt 6.10333 3.96107 79.4037
81 7 Pt 0.332459 0.0916293 81.1234
84 10 Sc 2.35556 2.17155 81.395
321 7 Pt 3.96921 0.236603 81.0259
324 7 Pt 6.10893 2.03292 81.2332
201 6 Pd 0.17237 4.02938 81.0668
204 10 Sc 1.96362 6.03929 81.2489
441 7 Pt 4.03704 4.16693 81.1132
444 3 Cu 5.90906 6.09268 80.9617
82 7 Pt 0.201304 2.043 83.1827
83 5 Ni 2.34507 0.252921 83.1863
322 5 Ni 3.97966 2.0368 82.9674
323 7 Pt 5.98847 0.0653138 83.1878
202 7 Pt 0.198796 5.89776 83.2297
203 7 Pt 2.26492 3.99229 83.2706
442 10 Sc 4.26219 6.04019 83.2994
443 7 Pt 5.97048 4.3679 83.0595
85 8 Rh 0.227336 0.205792 84.9456
88 8 Rh 2.21532 1.94066 84.8516
325 8 Rh 4.20035 0.221778 84.8587
328 8 Rh 6.06022 2.31642 85.0122
205 8 Rh 0.118965 4.27196 85.0527
208 8 Rh 2.17354 6.18732 85.0508
445 8 Rh 4.1673 3.88597 84.9387
448 9 Ru 6.2856 6.13725 84.9185
86 9 Ru 0.0981311 2.06974 86.6048
87 7 Pt 2.28458 0.0244943 86.884
89 8 Rh 0.116894 -0.0352043 88.6818
92 10 Sc 2.06844 2.04498 88.5645
326 8 Rh 3.93767 2.14606 86.9254
327 8 Rh 6.05822 0.0582016 86.6951
329 8 Rh 4.11406 0.405211 88.7274
332 8 Rh 5.98921 2.20218 88.7397
206 8 Rh 0.0256379 6.17668 86.9911
207 8 Rh 1.99114 4.02807 86.7017
209 8 Rh 0.218639 4.13823 88.638
212 3 Cu 2.17427 5.99192 88.6363
446 8 Rh 4.28073 6.22576 86.652
447 9 Ru 6.19118 4.14771 86.7954
449 8 Rh 4.08812 4.13265 88.6606
452 9 Ru 6.1762 6.16488 88.6148
90 8 Rh 0.299167 1.99129 90.46
91 4 Ir 2.13574 0.24931 90.4101
93 8 Rh 0.166443 0.121754 92.3051
96 8 Rh 2.02272 2.15025 92.2268
330 8 Rh 4.03525 2.15421 90.574
331 8 Rh 5.90926 0.107917 90.3815
333 4 Ir 4.12852 0.0801529 92.245
336 8 Rh 6.06509 2.07765 92.4116
210 3 Cu 0.293345 6.21658 90.4609
211 8 Rh 2.01914 4.06449 90.3302
213 8 Rh 0.0136033 4.05629 92.1562
216 8 Rh 2.2138 6.12085 92.2756
450 8 Rh 4.15719 6.00724 90.554
451 10 Sc 5.95524 4.2519 90.3531
453 8 Rh 3.94856 4.01915 92.1905
456 8 Rh 6.28232 5.97098 92.3125
94 8 Rh 0.0498369 2.08437 94.1299
95 10 Sc 1.99009 0.23176 93.9698
97 9 Ru 0.059295 0.0764514 96.0247
100 9 Ru 2.10815 2.22082 95.9754
334 8 Rh 4.04005 2.14868 93.9791
335 9 Ru 6.01547 -0.0114355 94.0774
337 9 Ru 4.08403 0.130014 95.9767
340 9 Ru 5.96029 2.16696 95.9422
214 8 Rh 0.0445594 6.11127 94.0817
215 8 Rh 2.04762 4.12102 94.1362
217 9 Ru 0.0758928 3.98467 95.9986
220 9 Ru 2.07496 6.20051 95.9642
454 8 Rh 4.13147 5.98392 94.2822
455 4 Ir 6.06671 3.97087 94.1281
457 9 Ru 3.74644 4.28637 95.9677
460 9 Ru 6.07109 6.09086 95.9515
98 4 Ir 0.00562487 1.95436 97.8018
99 9 Ru 2.10411 0.231214 97.6482
101 4 Ir 0.142331 0.0686557 99.5201
104 9 Ru 2.10538 2.13131 99.5491
338 9 Ru 4.0404 2.09175 97.7501
339 9 Ru 5.89852 0.114316 97.6697
341 9 Ru 3.99691 0.0611681 99.3633
344 8 Rh 5.99153 2.08152 99.4805
218 4 Ir 0.198174 6.11687 97.764
219 9 Ru 2.11655 4.10779 97.8691
221 9 Ru 0.293253 4.10971 99.5051
224 9 Ru 2.21801 6.10724 99.5789
458 9 Ru 3.92554 5.9996 97.8427
459 9 Ru 5.82525 4.17341 97.7415
461 9 Ru 4.13046 3.89294 99.6298
464 4 Ir 6.17545 6.15773 99.4923
102 4 Ir 0.149578 2.02396 101.258
103 9 Ru 2.18595 0.176458 101.362
105 8 Rh 0.280363 0.00853689 103.142
108 9 Ru 2.18358 2.2059 103.209
342 9 Ru 4.20127 2.00442 101.326
343 9 Ru 6.11802 0.157437 101.269
345 9 Ru 4.00605 0.0713804 103.031
348 8 Rh 6.0472 2.24486 103.236
222 4 Ir 0.0196103 6.13251 101.32
223 8 Rh 2.25988 4.15323 101.321
225 9 Ru 0.121969 4.12273 103.069
228 4 Ir 2.02922 5.93867 103.182
462 9 Ru 4.14669 6.11855 101.283
463 9 Ru 5.93372 4.10831 101.362
465 9 Ru 4.02688 3.9044 103.265
468 9 Ru 5.9323 6.16482 103.231
106 9 Ru 0.342999 2.33429 104.76
107 9 Ru 2.1256 0.0433451 104.812
346 9 Ru 4.09221 2.04037 104.885
347 4 Ir 5.94463 0.0536389 104.883