LAMMPS data file via write_data, version 29 Aug 2024, timestep = 500, units = metal

480 atoms
10 atom types

0.1833351377407868 7.996664862259215 xlo xhi
0.19952686256608843 7.980473137433892 ylo yhi
-7.654656434040064 140.3546564340398 zlo zhi

Masses

1 107.8682
2 196.966569
3 63.546
4 192.217
5 58.6934
6 106.42
7 195.084
8 102.9055
9 101.07
10 44.955908

Atoms # atomic

1 7 0.2043067190387396 7.945345426724784 0.6152495533029398 0 -1 0
4 10 1.4980060267274662 2.2514265632841832 0.1616620432832656 0 0 0
241 7 3.1883308210292505 7.872303193221746 0.38343785326477686 0 -1 0
244 1 5.642501031943972 1.5442615831963653 -0.06623415145761147 0 0 0
121 2 7.054631335670106 4.029143305526826 -0.9263458790663162 -1 0 0
124 10 1.4460412648168246 5.883971118302577 -0.11738226796998585 0 0 0
361 2 3.8987403495507045 3.861602653126673 -0.008829904194622706 0 0 0
364 1 5.639761539280737 6.425437205837799 -0.10891981938430018 0 0 0
2 7 0.35600882422797164 2.0239979978957736 2.677470042136461 0 0 0
3 1 1.905392819727864 7.360624432006544 2.6093807395694437 0 -1 0
242 1 3.415838721455764 1.8443708898143474 2.67766243037682 0 0 0
243 3 5.830418296263929 0.3060195801395612 2.237201585208094 0 0 0
122 1 7.4836078632889915 5.597967782971815 2.4999497602558343 -1 0 0
123 6 1.8757912809527197 4.1693206647449745 2.0196303703457374 0 0 0
362 1 4.207241479079496 6.01092518379527 2.4196296458311863 0 0 0
363 1 5.83351772880882 3.3521769295757995 2.0581861040415053 0 0 0
5 2 7.169138452920199 7.697687122744974 4.64072821785296 -1 -1 0
8 3 1.6625855702393817 1.4488384877699845 4.846779236566814 0 0 0
245 7 4.281982175189517 7.922371817266309 4.9142497150647735 0 -1 0
248 1 5.850779221859664 2.501028962707916 4.641301806324893 0 0 0
125 1 0.5724549193595523 4.012039905079059 4.717511661434068 0 0 0
128 2 1.7586713710974082 6.542331997775757 5.2979540576070026 0 0 0
365 1 3.4556427454149685 3.9542106992293036 4.494536280738496 0 0 0
368 6 5.8202567586504514 5.3841522772214985 4.681918693852577 0 0 0
6 1 7.718145917359681 1.893913266487338 6.778397961755738 -1 0 0
7 1 2.4852424088630314 0.49866189549479595 7.344025742707368 0 0 0
246 1 4.313460040268689 2.5059215151036724 6.867433121875221 0 0 0
247 6 6.055783003787964 7.627790466018107 7.243021954149864 0 -1 0
126 3 0.39841948038789765 6.211711579491221 7.331945830846186 0 0 0
127 1 1.8671979693046197 3.9799476307469517 7.206474577560067 0 0 0
366 10 4.103342186607147 5.7917685263431435 6.689823400344949 0 0 0
367 1 6.5019327856253195 4.177015620502238 7.0047506179266925 0 0 0
9 2 7.972907800073102 0.5410564624317757 9.367485101962558 -1 0 0
12 1 2.461935148539996 2.3221183246841544 9.52589974788484 0 0 0
249 1 4.337042213857529 7.821774291268349 9.317233527901827 0 -1 0
252 1 5.890761596036027 2.439970517724916 9.295527938424744 0 0 0
129 1 0.3644646488679546 4.096795029621246 9.490808111508294 0 0 0
132 6 1.9572326083944191 6.225842974978036 9.343110878354803 0 0 0
369 2 4.047551268909382 4.4609968491249585 9.13190179996218 0 0 0
372 1 6.283946540569319 6.019661972275416 9.330727888083324 0 0 0
10 10 7.75649417917265 2.415149038402997 11.690699997442582 -1 0 0
11 6 1.997824901923382 0.44169936936669696 11.640854980595591 0 0 0
250 1 4.373126724456473 2.230107259093052 11.779661909137761 0 0 0
251 6 6.092077828004895 7.891218163295072 11.406310969913982 0 -1 0
130 10 0.4386040399919506 6.041109908827093 11.620931742810946 0 0 0
131 6 2.214903134678838 4.086156687157388 11.822137780362155 0 0 0
370 1 3.900665403223824 6.135968865855461 11.858561709637357 0 0 0
371 7 6.141573268521382 4.2583402515990505 11.546186024355162 0 0 0
13 2 7.948882865735316 0.2477585184278545 13.754333689341298 -1 0 0
16 1 2.2113911744407533 2.1386763763098857 14.073587987693042 0 0 0
253 2 4.306842300553962 7.966599451660672 13.850507754132213 0 -1 0
256 3 6.245330567787379 2.2084623396231615 13.953904607056838 0 0 0
133 6 7.920958330980376 4.16435863325833 13.803460532742765 -1 0 0
136 1 2.1968241294149466 6.112372050830594 14.031235465933488 0 0 0
373 2 4.242546822545481 4.102197363901262 13.746718554894546 0 0 0
376 3 6.12375039265882 6.131411342394103 13.877330622864157 0 0 0
14 6 7.795771095678409 2.3924911992929343 16.065069818844588 -1 0 0
15 3 1.8362796489230646 0.6559312194564464 16.3335775407772 0 0 0
254 1 4.3698759816605275 1.9721707826999613 16.21518242894873 0 0 0
255 1 6.319357494473085 7.6113253611071 16.092040885769183 0 -1 0
134 7 0.7158737548659674 5.980810138153329 16.46898945745602 0 0 0
135 1 2.367631059172703 3.7659820455397726 16.21192635106342 0 0 0
374 1 3.6992140358508454 6.243221198018896 16.235033093273792 0 0 0
375 2 5.972894380278396 4.574737327283861 16.138605420605252 0 0 0
17 7 7.940198597518689 0.7413596135571002 18.236437639008162 -1 0 0
20 6 2.497590616360354 2.1891481623459415 18.56347508645619 0 0 0
257 2 4.371519504179236 0.2951570517644957 18.497492231245605 0 0 0
260 2 5.917634359268073 2.7003683424765508 18.47435853560258 0 0 0
137 10 0.33830051900405567 3.922019474360183 18.259014246525272 0 0 0
140 10 1.7888610513467154 6.614159449555776 18.807592326958495 0 0 0
377 6 3.9625361818344427 4.623681673855071 18.5486029452238 0 0 0
380 6 6.574746186449987 6.0373727739072285 18.5421635279815 0 0 0
18 6 0.30953288291501363 2.140243016327788 20.662284626585507 0 0 0
19 5 2.215014030715632 0.36665169029543077 20.797568242064877 0 0 0
258 10 3.9212523786021025 2.453087313479709 20.779233569970646 0 0 0
259 10 6.193789401737709 7.9771772529566185 20.537473696201722 0 -1 0
138 4 0.29179169482726136 6.405058977122331 21.108969111737697 0 0 0
139 7 1.9180460187545483 4.335678470663816 20.501742864615718 0 0 0
378 6 4.0006848448481325 6.267772928758368 20.674346649761112 0 0 0
379 2 6.159891963162533 4.40913738497016 20.708178520789083 0 0 0
21 6 7.585007549470454 0.3912819311344482 23.162127638616273 -1 0 0
24 2 2.0312475085704524 2.151920157656938 23.010298049151167 0 0 0
261 6 4.326804139342766 0.2850742240233244 22.64923275711933 0 0 0
264 6 5.911251850623934 2.437764605558798 22.615553806093246 0 0 0
141 10 7.916143710835793 4.148216726331762 22.78682726922853 -1 0 0
144 10 2.276452960925925 6.637319444264787 22.76137237773688 0 0 0
381 1 4.054521036329859 4.36485702713373 22.990732370953555 0 0 0
384 6 5.948195947466049 6.029738627291658 22.89277595440572 0 0 0
22 7 7.894066496885653 2.1363477929625336 25.067619296883805 -1 0 0
23 6 2.0687406241137256 0.26233728523333466 24.9854532953036 0 0 0
262 6 4.310679346022502 2.1991302994033672 24.85947546445965 0 0 0
263 3 6.085458710303294 7.9692875179290725 25.29265250798654 0 -1 0
142 5 7.651833323544665 6.239484081003754 25.000475028838828 -1 0 0
143 6 1.9957246619403968 4.631845779788646 24.786012670888027 0 0 0
382 7 4.127908137093987 6.197974371083449 25.027183762688452 0 0 0
383 3 5.918164860230586 4.264220913038129 25.112170915016875 0 0 0
25 3 0.31051585774617074 0.31497230600593085 26.841270041148526 0 0 0
28 10 2.1620014356281665 2.5339293940335215 26.609981490840077 0 0 0
265 3 3.8606671059836604 0.4408599967218987 26.650923588038182 0 0 0
268 3 6.01858360027666 2.2638174290272617 26.90085398022211 0 0 0
145 5 7.8224353824749535 4.255010960680595 26.689085110596594 -1 0 0
148 3 2.0830983623333057 5.92229783599897 26.90611652679363 0 0 0
385 3 4.272133937863014 4.184042600410317 26.774648026224632 0 0 0
388 3 5.9555689045844975 6.074105726750253 26.884298831043033 0 0 0
26 6 7.9585023130498405 2.4204741197440556 28.527729568520193 -1 0 0
27 5 2.116561838541463 7.87579804057972 28.591316003356347 0 -1 0
266 7 3.9832255972512036 2.25267699949349 28.523711982582775 0 0 0
267 2 5.896755440155008 0.2582650113129727 28.582111394187358 0 0 0
146 7 7.9537441968830915 5.753725681776796 28.756169501171904 -1 0 0
147 3 2.0230099547683227 4.05459083075694 29.02961348384786 0 0 0
386 7 3.844382915795098 5.80240030407065 28.6983982112232 0 0 0
387 5 6.062334381295994 4.179589614595687 28.59314652111256 0 0 0
29 10 7.832165481345472 7.744096083179467 30.413762696661202 -1 -1 0
32 2 2.0929137854432494 1.9972043497641345 30.656685790622532 0 0 0
269 3 3.9239710948356756 7.744867681336255 30.407342412244134 0 -1 0
272 5 5.831798190103303 1.747715006782941 30.7668907095481 0 0 0
149 3 7.719964396834094 3.9498099843565915 30.56702493033736 -1 0 0
152 5 2.336983943758469 6.101775625722857 30.477439901124136 0 0 0
389 7 4.288935647994016 3.863102012401435 30.797821046316926 0 0 0
392 5 6.028660939838895 5.671217084672598 30.529773588721326 0 0 0
30 3 0.3669368606233755 2.0741518611378096 32.498234382904165 0 0 0
31 7 2.1203831587142705 7.703120965828655 32.63491307152028 0 -1 0
33 5 0.38737997221425946 7.718860314429617 34.30047163728379 0 -1 0
36 7 2.044809990211265 2.075036314742527 34.38492489657026 0 0 0
270 5 4.297923454983158 2.0379936934682874 32.890552932368465 0 0 0
271 3 6.026456769643607 0.23400315434440877 32.59256839653423 0 0 0
273 3 3.9193023835400753 7.93744775731886 34.64729828297772 0 -1 0
276 6 6.216744103267525 1.9372294184730288 34.53460303147963 0 0 0
150 6 7.969194043754278 5.8379565080967355 32.18606036090524 -1 0 0
151 3 1.962194600018738 4.03734669842501 32.23069649630791 0 0 0
153 2 7.975838427782495 4.062304118232435 34.51235230526447 -1 0 0
156 3 2.1966896783139656 5.96310528054158 34.49939532670797 0 0 0
390 2 4.2654589281747946 6.1564660426381685 32.48933274083926 0 0 0
391 3 6.1727083851506634 3.826590702703287 32.40950845998835 0 0 0
393 10 3.9499586297295735 3.9255710548533145 34.26822924055242 0 0 0
396 2 6.076003728115619 6.1450266681260794 34.73646461683971 0 0 0
34 7 0.20338554480877935 2.051246295738522 36.53036746555248 0 0 0
35 5 1.9482398138477504 7.721106411531868 36.27628089227272 0 -1 0
37 5 7.976042614296879 7.946036495781136 38.44064377977749 -1 -1 0
40 4 2.091078419590966 1.782928888469486 38.435305026659044 0 0 0
274 2 4.056927930043575 2.0240789111744886 36.33636819457134 0 0 0
275 3 6.1604741511188745 7.947109376052162 36.5623967564775 0 -1 0
277 10 4.060432733364923 7.817467385621201 38.18754911365091 0 -1 0
280 8 6.019267180343402 2.051520367636457 38.293278362037846 0 0 0
154 5 7.994555900830466 5.897352785007096 36.59704864904745 -1 0 0
155 3 2.1615271302457293 3.99843126557527 36.458835013300195 0 0 0
157 10 0.2347891034581817 3.9244493201174677 38.20208496886464 0 0 0
160 4 2.017854369018676 5.846440527281996 38.201300576283344 0 0 0
394 7 3.973085548401565 5.9612101921100935 36.46764237192949 0 0 0
395 5 5.884932665184834 4.102584574404283 36.6195140979702 0 0 0
397 8 4.116822107570618 4.137690173371363 38.42372629644892 0 0 0
400 4 6.06634165436612 5.944484022374881 38.48547220068416 0 0 0
38 5 0.4039177837228819 2.024788501461181 40.407148711754445 0 0 0
39 9 2.0763186447205735 7.9057329458224785 40.46841626303045 0 -1 0
41 9 0.2864485887336465 7.859190459112663 42.265501352238694 0 -1 0
44 9 2.274865123496216 1.988326044329473 42.281845015072044 0 0 0
278 4 4.101453223800249 1.8685914806785995 40.133832503275734 0 0 0
279 4 6.325086288479829 7.868112476496039 40.36529121913017 0 -1 0
281 9 4.1384534109453766 0.1996044731842268 42.21831567268845 0 0 0
284 4 6.209720196492928 2.009385919236051 42.18572685840444 0 0 0
158 8 0.22305982454098727 5.768680241431997 40.15563115154729 0 0 0
159 8 2.3125941555024814 3.9346993932557024 40.25415157575212 0 0 0
161 4 0.19473849819361508 3.9901330223003133 41.99741860220391 0 0 0
164 4 2.2233448253473114 5.947353379647017 42.16325611608054 0 0 0
398 4 4.075452146380286 6.0809981074083455 40.42453001693039 0 0 0
399 9 5.857633969880286 4.01931430451965 40.31806399905944 0 0 0
401 9 4.285383687659898 3.9822286723319222 42.35326711658245 0 0 0
404 9 6.136453864333538 5.967958954277502 42.34143151419402 0 0 0
42 9 0.30603786576794656 1.9117940113511027 44.05229604027469 0 0 0
43 9 2.214523043389485 7.82214501346693 44.06071098824824 0 -1 0
45 4 0.283157690991544 7.74441122206618 45.926519865320934 0 -1 0
48 9 2.162535022160284 1.9549762671039899 45.80040083287352 0 0 0
282 4 4.282457929362781 1.983628585427847 44.11359752225192 0 0 0
283 8 5.9166386513376885 7.710525973118426 44.091829131334 0 -1 0
285 9 4.18475599386513 7.938252591089035 45.89241553141253 0 -1 0
288 5 6.275082999987946 1.9167757526328157 45.70562087745143 0 0 0
162 9 0.30024068080729965 5.931208507463256 44.020163914776994 0 0 0
163 8 2.145539615844431 4.062146264217908 44.036840783400386 0 0 0
165 8 0.21816106188479586 3.9201241220204164 45.95186142525795 0 0 0
168 4 2.3233219014704307 5.9507730286174265 45.86209699335991 0 0 0
402 9 4.114753695312682 5.885041680660893 44.0100414894364 0 0 0
403 4 6.217936223526278 3.943303322888767 44.09748560564916 0 0 0
405 8 4.086184231343455 3.963495319106714 45.85270329698481 0 0 0
408 8 6.093090706278511 5.853911399090083 45.95729048867322 0 0 0
46 8 0.36857327520304184 1.9825783249348523 47.8790516366795 0 0 0
47 10 2.1118851684117406 7.755395891105412 48.02498347678992 0 -1 0
49 5 7.900682527852119 7.761402193763889 49.684976787643926 -1 -1 0
52 5 2.2942127386570137 1.9754758156654089 49.775434442449146 0 0 0
286 4 3.984368172078457 2.0734943506656967 47.73701815925673 0 0 0
287 4 6.026854689922358 0.28172509894145126 47.70961030863367 0 0 0
289 5 4.43142809928535 7.895808709358164 49.68390777707915 0 -1 0
292 5 6.21214169285143 1.7884495332183095 49.6580061357473 0 0 0
166 8 7.899313177258382 5.775499416361613 47.85457776328429 -1 0 0
167 9 2.271881910040117 3.926523451560085 47.58446252022842 0 0 0
169 5 0.4730926457278835 3.863021731539901 49.49854745080854 0 0 0
172 5 1.9870453191444584 5.674137247207482 49.65772008932772 0 0 0
406 7 4.115763740073834 6.079776828686328 47.96225494808508 0 0 0
407 10 5.995508398397176 3.8452156784172327 47.92453803425355 0 0 0
409 4 3.8315101719443567 4.070705616272019 49.7199305019617 0 0 0
412 5 6.1617592396505 6.004307972940746 49.627472812986895 0 0 0
50 8 0.2699499550304166 2.1794574994524964 51.3532145794471 0 0 0
51 7 2.117159278887283 7.758526667738698 51.099608604799215 0 -1 0
53 8 0.22945999543223294 7.642345528032785 53.26743993277487 0 -1 0
56 2 2.0620798150546875 1.9162424440741868 53.3531778213398 0 0 0
290 8 4.139871549318536 2.199203763104152 51.390975181736145 0 0 0
291 8 6.163203245185256 7.830924554327701 51.490429892989376 0 -1 0
293 8 3.9824455822913865 0.2755603660270354 53.27060276189336 0 0 0
296 10 6.060304218080665 2.062836989794726 53.23435248052895 0 0 0
170 8 0.23791557396276575 5.775892144471256 51.318213736884665 0 0 0
171 5 2.2213094303021768 3.922991485167857 51.59392776864199 0 0 0
173 5 0.20532933073211623 4.125105710747013 53.113557793481704 0 0 0
176 5 2.1412294806594696 6.175981916072094 53.302570950212726 0 0 0
410 10 4.054929390293778 6.012546739737209 51.50840265971779 0 0 0
411 8 6.105304331365629 4.002088672250953 51.146158902017284 0 0 0
413 5 4.3504653926087045 3.9857890116234054 53.125569225683144 0 0 0
416 8 6.251056396405756 5.683536507801684 53.18086873344281 0 0 0
54 3 7.941202607037148 2.0538421552176156 54.968987788386016 -1 0 0
55 3 1.972062350665522 7.93101964702544 55.148286066155215 0 -1 0
294 5 4.225044226935575 2.27359965322267 55.109060588068814 0 0 0
295 7 6.119106485869661 7.732106740380264 54.92957929996733 0 -1 0
174 5 0.4245826022770325 6.033378262738305 55.230980412562786 0 0 0
175 7 2.1939114102890844 4.165402979194009 54.63678624580988 0 0 0
414 3 4.322831575755286 5.875241167277963 54.86029806277922 0 0 0
415 5 6.018133365699825 3.88158483724566 54.99345828466033 0 0 0
57 5 0.22685172532334644 0.2728536988026266 56.738565828517224 0 0 0
60 5 2.251823168471943 2.1056776584797845 56.578055907605844 0 0 0
297 5 4.159437853265777 7.918929129059421 56.502673136405434 0 -1 0
300 5 6.1313658706851655 1.863877601538994 56.5374659470785 0 0 0
177 5 0.3261806876756187 3.769275892354093 56.63594174377057 0 0 0
180 3 2.5958377643489605 5.921297104717615 56.578490886930496 0 0 0
417 3 4.100878460796757 4.063009584224524 56.68357610418663 0 0 0
420 1 6.225995754739216 5.644302093223844 56.777197268928305 0 0 0
58 3 0.4727996765933555 2.1063323447169173 58.28995956442614 0 0 0
59 6 2.3743743295522743 7.808748621512439 58.302331164967185 0 -1 0
298 7 4.221478029529084 2.0667983117066706 58.05019667385916 0 0 0
299 1 6.171221398468498 7.839332001321332 58.469259861508704 0 -1 0
178 3 0.495379070887004 5.695858439341178 58.32988395470298 0 0 0
179 3 2.263673407578069 4.000076908146829 58.25999668265234 0 0 0
418 3 4.316951018484314 5.886596930931523 58.357899848667955 0 0 0
419 3 6.176532399399054 3.888429056239456 58.628087700191244 0 0 0
61 2 0.2906227673455834 0.31548129996707897 60.12459230827524 0 0 0
64 1 2.599273343505939 2.0369321506279 60.404301158817546 0 0 0
301 7 3.9065888959414314 7.347029101107438 60.5144354811157 0 -1 0
304 10 5.502497334907593 1.9328505875208417 60.3794715948772 0 0 0
181 2 0.21267719818980968 3.7533893268253946 60.58393574641755 0 0 0
184 3 1.8549903054604253 5.80662043611381 60.34220798780366 0 0 0
421 7 4.145993959241655 4.359024954567142 60.35724545342357 0 0 0
424 6 6.306396425562964 6.01243976435058 60.431829786303126 0 0 0
62 2 7.92016666407949 1.870920676427239 62.56573168444561 -1 0 0
63 7 2.4533473164098965 7.939371511760008 62.63685789788802 0 -1 0
302 6 4.383981142745549 2.1139342299267105 62.96120414805077 0 0 0
303 1 5.905136387415109 7.726535192450954 62.689352486441365 0 -1 0
182 2 0.39343973682784933 6.152991127213057 62.48601310998707 0 0 0
183 6 2.326530524668866 3.840080622280279 62.447169998126654 0 0 0
422 10 4.012111244571562 5.860214225593804 62.563807661716496 0 0 0
423 3 6.188632455510023 3.8199740003616944 62.54311863430539 0 0 0
65 7 7.859656551951893 7.900748168145443 65.07413876136398 -1 -1 0
68 10 2.35863362772179 1.9381817333135785 64.89211227430135 0 0 0
305 6 4.055653648073201 7.540976363852915 65.08112229305623 0 -1 0
308 10 5.973455361998054 2.1366503140344757 64.85392870219174 0 0 0
185 6 0.2993355956674168 3.573890977244714 64.90730959257361 0 0 0
188 1 1.9343118613172634 5.8721017798678465 64.8407478972078 0 0 0
425 7 4.0443759147577145 4.072616307460536 65.03750527301527 0 0 0
428 2 6.259671075555135 5.881550368305106 64.68743769194002 0 0 0
66 1 7.915292935493554 2.0332373556268344 67.07831929425224 -1 0 0
67 6 2.0051215545412475 7.647019881712897 67.13887911463493 0 -1 0
306 6 4.06592583507229 2.0399019525127233 66.86056076383584 0 0 0
307 6 5.98394595788287 7.646713823297255 66.96638901150115 0 -1 0
186 3 7.961213851542734 5.916956949479492 67.0823274584841 -1 0 0
187 6 2.0781488241812323 3.938129905631563 66.87756439286242 0 0 0
426 10 4.148554386941434 5.7185642632401885 67.020261396509 0 0 0
427 3 6.1315096866947005 3.9326821951324367 67.00811185874218 0 0 0
69 2 0.3130545274550496 7.817958495553878 69.1990978395804 0 -1 0
72 1 2.1478241769360187 2.1445463495054966 69.14352443115364 0 0 0
309 7 4.12489501317845 7.940889596360321 68.95845092076232 0 -1 0
312 2 6.24943407942809 1.943517484920523 69.34415896569276 0 0 0
189 5 7.965999155898228 4.3446374066009765 69.18040027345228 -1 0 0
192 7 2.251497136437186 5.764576214091134 69.15844406560734 0 0 0
429 2 4.247044922980386 3.937021183649707 69.23592186067896 0 0 0
432 7 6.061474431096716 5.895129045052856 69.00517893891175 0 0 0
70 10 0.26650462613613757 2.294937763038839 71.50963730643791 0 0 0
71 2 2.256952525415955 0.2968356022595796 71.25750071356212 0 0 0
310 3 4.074269756009387 2.099431367720092 71.41048195768116 0 0 0
311 6 6.02866887837609 7.90450269973636 71.2915186828692 0 -1 0
190 1 7.844659700386934 5.888159327058678 71.22262960001892 -1 0 0
191 7 2.0053900125943462 3.9648114569678654 71.23302588111251 0 0 0
430 10 4.068680441257254 6.001387463746337 71.00501504174984 0 0 0
431 3 6.006775102319915 4.163601884123839 71.15940418220062 0 0 0
73 2 0.21472710568361109 7.912312149420983 73.39213864784038 0 -1 0
76 6 2.088964755207025 2.031569710988154 73.42872173184655 0 0 0
313 3 4.122783297263749 7.921551078500844 73.20883859467139 0 -1 0
316 7 5.991831740063132 2.162080550915358 73.21156803675159 0 0 0
193 3 0.3728298910577762 4.064136478625076 73.33079878873926 0 0 0
196 2 2.217155795915015 6.042831362395551 73.19040570286286 0 0 0
433 7 3.989065877120553 4.085782836788361 72.97300284869831 0 0 0
436 6 6.071559231116291 5.882597038861655 73.25822917666096 0 0 0
74 6 0.2817998701866536 2.3335685317533703 75.56637317446746 0 0 0
75 2 2.0850772874134624 0.20596695498934395 75.5863811034202 0 0 0
314 5 4.071437740415897 1.875726179051676 75.64988027455503 0 0 0
315 10 6.093624351648847 0.5894275586332449 75.38247935247047 0 0 0
194 1 7.9642437674016335 5.80350911282065 75.30583003572717 -1 0 0
195 6 2.423859927588122 4.125393992038353 75.38456522066467 0 0 0
434 2 4.260263083810528 6.287615408436815 75.54180114801096 0 0 0
435 10 5.617244890035602 3.704415516613435 75.24159905617739 0 0 0
77 7 7.844513654528132 0.254024833527777 77.52992020576966 -1 0 0
80 1 2.3132242971087025 2.3546933052796173 77.60649742269376 0 0 0
317 5 4.176069405747594 0.30422491449628275 77.89688758474752 0 0 0
320 7 5.682924955902681 2.32613387392429 77.47321319704346 0 0 0
197 6 7.956963647653884 4.020837220579489 77.61224424652973 -1 0 0
200 10 1.9300245539600969 6.170715238102692 77.65924382462345 0 0 0
437 6 4.041431771282685 4.36890728620477 77.69612552739503 0 0 0
440 10 6.059784767695664 6.097601761571698 77.80557844967186 0 0 0
78 10 7.638285397533705 2.122075486297419 79.41836958525002 -1 0 0
79 7 2.134629541194066 0.3336834532545234 79.72110866273817 0 0 0
318 5 4.162355092863316 2.2788079185040253 79.57896921832663 0 0 0
319 7 5.943761128299169 0.4025699600238041 79.61617971123049 0 0 0
198 4 7.9194056596831786 6.0816278691003856 79.770924202171 -1 0 0
199 2 1.976617208575851 4.0677850557358575 79.64735670940811 0 0 0
438 7 4.173852214879167 6.061083293577524 79.67080493840434 0 0 0
439 8 6.093150897071931 4.197490499799862 79.66362074411451 0 0 0
81 7 0.23902051224422613 0.3067656384757602 81.852095190446 0 0 0
84 10 2.349856887707775 2.2246921375060045 81.9410264847393 0 0 0
321 7 4.051804026262002 0.3688592216276806 81.93374684845176 0 0 0
324 10 5.95838104958529 2.3322475738844264 81.81624076502092 0 0 0
201 7 7.828146028597734 4.337314507770233 81.8431619858726 -1 0 0
204 10 2.2790335939538724 6.092365370571665 81.73915669918966 0 0 0
441 7 4.24977964784061 4.208686230021791 81.64079941093343 0 0 0
444 3 5.984842361569001 6.2006770537985965 81.7007651713437 0 0 0
82 5 7.9747404127614 2.384148018999957 83.64163253223134 -1 0 0
83 5 2.0392358451178794 7.906029804104641 83.82151545170257 0 -1 0
322 5 4.148130935603088 2.3663163211396125 83.77060803912399 0 0 0
323 8 6.239229536364176 0.4300221806594161 83.67580428405695 0 0 0
202 3 7.96240853855508 6.093746176711073 83.67233245738664 -1 0 0
203 4 2.226542993862721 4.147150574224307 83.75553352844884 0 0 0
442 8 4.064128769460968 6.100084020456871 83.70697666778686 0 0 0
443 3 6.010054445338481 4.2256653677002305 83.77544092324509 0 0 0
85 4 0.2053603375021496 0.5342623556978607 85.54523536489774 0 0 0
88 5 2.2732244764033545 2.205099281012276 85.5275816641309 0 0 0
325 10 4.170812675804749 0.32729250348485434 85.37929778913309 0 0 0
328 5 5.8631956221889165 2.3132805620805006 85.64247104647654 0 0 0
205 10 0.23580527474416585 4.2028808538154925 85.60718365753172 0 0 0
208 8 2.1522635381026296 6.065717876161612 85.58841074392092 0 0 0
445 4 4.067451531973006 3.994556458417573 85.57629054976047 0 0 0
448 9 6.017152777840558 6.246478915703936 85.60792580151106 0 0 0
86 8 0.2617116994775222 2.2662034964231403 87.31874016102677 0 0 0
87 7 2.1794669659644264 7.961020389170194 87.3404013605534 0 -1 0
89 8 7.862878654802639 0.4084409525993083 89.38642350484875 -1 0 0
92 10 2.155285913051361 2.3172363247143526 89.32161184915344 0 0 0
326 8 4.1271769962946045 2.2589315040564313 87.64752229113593 0 0 0
327 8 6.018288206728483 0.3680319230772402 87.39392168374704 0 0 0
329 8 4.135362934210155 0.38811486798214523 89.36218704856739 0 0 0
332 5 5.993382606242269 2.3795692793979373 89.37928803130674 0 0 0
206 8 7.91667769564488 6.249148516303523 87.4620012193872 -1 0 0
207 4 2.2649676330371213 4.202437729771116 87.35520835141801 0 0 0
209 8 7.925749929056387 4.207151980600658 89.26530975873 -1 0 0
212 10 2.2334064395919726 6.045662371797566 89.42162944378893 0 0 0
446 5 4.219784486326043 6.074827538835405 87.5367399704315 0 0 0
447 8 5.981812823112701 4.158429513939168 87.34292741308958 0 0 0
449 4 4.359668110830631 4.239058884891857 89.32763560969168 0 0 0
452 9 5.931106471122577 6.207679085688382 89.48995697705969 0 0 0
90 4 7.90401541299226 2.2464964589212553 91.2869959301091 -1 0 0
91 8 2.181342530674679 0.3996915088051356 91.26063845997159 0 0 0
93 8 0.2302915714816035 0.2835816373538549 93.1288889299552 0 0 0
96 8 2.045320721297637 2.321031203288788 93.35859154387386 0 0 0
330 4 4.054359105184572 2.139833314449058 91.34075530731269 0 0 0
331 9 6.089657754592315 7.893504248870096 91.36318726791372 0 -1 0
333 9 4.1504490326206405 7.9320104403869545 93.3594701977168 0 -1 0
336 8 6.067531102958839 2.1682453283143874 93.33032637061791 0 0 0
210 4 0.2899581271889828 6.045093540055016 91.26304836705951 0 0 0
211 8 2.1104704515458907 3.9925332778886236 91.2668244427523 0 0 0
213 8 7.993602841813015 4.058703758964814 93.25546417500811 -1 0 0
216 4 2.091541402891469 6.139568380506649 93.19123426787995 0 0 0
450 8 4.183634643800902 6.134446665276194 91.31918647623175 0 0 0
451 10 6.03497102827259 4.180778546497006 91.28208770811449 0 0 0
453 4 4.010599347253186 4.275094815399539 93.21016791133859 0 0 0
456 4 6.087254892980365 6.07716801663255 93.22579388346615 0 0 0
94 9 7.793389787960285 2.2140606439250115 95.21459230926268 -1 0 0
95 8 2.228793001494041 0.2666090900579403 95.29018594849562 0 0 0
97 4 7.862323820470506 0.22599480782260642 97.04350433660431 -1 0 0
100 4 2.114962621751113 2.247944386853335 97.04458078649154 0 0 0
334 4 4.055991393104753 2.1437102009186444 95.01853839774496 0 0 0
335 9 6.071645514544198 0.35871627908016795 95.1610189352493 0 0 0
337 9 4.0490424996311045 0.3088517431832827 97.09227496846127 0 0 0
340 9 5.908478061993023 2.262344839117762 97.1042508161258 0 0 0
214 4 7.962125603395952 6.077191889122792 95.14289044721177 -1 0 0
215 9 2.082559918739857 4.15501033250904 95.19923044082837 0 0 0
217 9 7.9000436377895245 4.107606202985615 97.25304363579689 -1 0 0
220 9 2.068087830232355 6.019802440672147 97.08772892242987 0 0 0
454 9 4.142443120034084 6.0539042878671525 95.25843897617783 0 0 0
455 9 5.886838303241328 4.078077273264903 95.13881322867654 0 0 0
457 9 4.035142548121108 4.167499716363859 97.004780902718 0 0 0
460 8 6.0610608579698795 6.014988591817916 97.18207535592737 0 0 0
98 4 7.9581306929453675 2.1502218608854866 98.91391777284572 -1 0 0
99 9 2.119636395963207 0.2729898265595499 99.0471228486947 0 0 0
101 4 7.946797247055862 0.3289100731351159 101.00697647143346 -1 0 0
104 9 2.0676739842384144 2.265127953712128 100.97107762856784 0 0 0
338 9 3.9635265678940432 2.23741053555235 99.0099724223527 0 0 0
339 9 6.011339359945785 0.30526094528725123 98.88081810858185 0 0 0
341 4 4.021600573947795 0.31884854459644707 100.89313437276022 0 0 0
344 8 5.997039512628165 2.160155841691646 100.8446876272179 0 0 0
218 4 0.22449057611096268 6.104591159573561 99.10705601740119 0 0 0
219 9 2.102977094884886 4.023086880490531 99.065490257827 0 0 0
221 9 7.909119106309191 4.093171226317908 100.96012946624063 -1 0 0
224 9 2.0522261797826307 6.152900149243604 100.85908203441099 0 0 0
458 4 4.05374600880778 6.090390224812269 98.94974241477244 0 0 0
459 4 5.873334312932265 4.175695273166007 99.00838387650938 0 0 0
461 9 4.040708487527592 4.189637629213161 100.98212708663175 0 0 0
464 4 6.0121511993159 6.082707193143489 100.99646837868501 0 0 0
102 4 7.948613650957904 2.2650199156886823 102.91158723208216 -1 0 0
103 4 2.1183640580409753 0.2557259159965228 102.84116254905646 0 0 0
105 4 7.894504273650849 0.2825360594740833 104.66821409161892 -1 0 0
108 9 2.019706695097339 2.197801151812113 104.79985982939364 0 0 0
342 4 4.048119880480577 2.2549776634558607 102.73952830246463 0 0 0
343 9 5.900627057122891 0.317942671849748 102.94552446418241 0 0 0
345 9 3.9686319544077904 0.3990623645534851 104.94411309992016 0 0 0
348 4 5.911283148199324 2.1832667618309456 104.86388356371059 0 0 0
222 8 7.822613340463457 6.214603895089331 102.78437026522184 -1 0 0
223 7 2.127694197011813 4.346931684736757 102.79169365400055 0 0 0
225 9 7.84016352839004 4.176817866093447 104.77084995705629 -1 0 0
228 9 2.123929528475017 6.139155472668734 104.76443931828145 0 0 0
462 9 4.008968941861652 6.207603730600737 102.77139134257897 0 0 0
463 8 5.903318656132194 4.100698312682626 103.0035170892965 0 0 0
465 9 4.006843531000288 4.140076997262774 104.79679103003349 0 0 0
468 4 5.888490112791711 6.158392033258406 104.84232134407834 0 0 0
106 9 7.908528175612945 2.1994578420852795 106.63059219976374 -1 0 0
107 9 2.033943426055606 0.4196533776534078 106.54907541293925 0 0 0
346 9 3.916569374228792 2.2303146585142004 106.53518024698307 0 0 0
347 8 5.982786695586151 7.97320097092822 106.81145711034866 0 -1 0
226 9 0.22677127297542682 6.229244778162609 106.51525275838955 0 0 0
227 8 1.999981271426644 4.220576029455195 106.63512689560272 0 0 0
466 9 3.9675994618033656 6.049545002703924 106.6156512961364 0 0 0
467 4 5.914870152991254 4.273806453979057 106.55476489365515 0 0 0
109 2 7.920974684016171 0.47046121707044386 108.741776393565 -1 0 0
112 8 2.3292104604492017 2.2805644736130595 108.73803035382223 0 0 0
349 4 3.976124987282499 0.2293690196940803 108.51251044177096 0 0 0
352 2 5.8297820665634905 2.266133652288331 108.71326632387044 0 0 0
229 6 7.851518285628337 4.151025301020049 108.71256828312279 -1 0 0
232 6 1.936831614111091 6.119737281110825 108.77895003015487 0 0 0
469 10 3.760912992477888 4.1268165404552475 108.53372302902741 0 0 0
472 10 5.990008694390481 6.249092315699682 108.63120096624611 0 0 0
110 10 7.871288356861042 2.423055960501391 110.60569631805174 -1 0 0