LAMMPS data file via write_data, version 29 Aug 2024, timestep = 379, units = metal

480 atoms
10 atom types

0.1428280022842923 8.037171997715712 xlo xhi
0.13498693606908999 8.04501306393092 ylo yhi
-4.978146946049634 137.6781469460497 zlo zhi

Masses

1 107.8682
2 196.966569
3 63.546
4 192.217
5 58.6934
6 106.42
7 195.084
8 102.9055
9 101.07
10 44.955908

Atoms # atomic

1 1 0.14282800228430734 8.045013063930913 2.940987696804239 0 -1 0
2 1 0.14282800228430098 2.1124934680345198 5.117800274139656 0 0 0
3 1 2.1164140011421244 8.04501306393091 5.117800274139661 0 -1 0
4 1 2.1164140011421217 2.112493468034521 2.9409876968042523 0 0 0
241 1 4.089999999999986 0.1349869360690963 2.9409876968042443 0 0 0
242 1 4.089999999999981 2.1124934680345206 5.117800274139656 0 0 0
243 1 6.063585998857813 8.04501306393091 5.117800274139661 0 -1 0
244 1 6.063585998857807 2.1124934680345255 2.9409876968042434 0 0 0
121 1 0.1428280022843006 4.089999999999991 2.940987696804247 0 0 0
122 1 0.14282800228430995 6.067506531965437 5.117800274139661 0 0 0
123 1 2.116414001142119 4.090000000000003 5.117800274139665 0 0 0
124 1 2.1164140011421204 6.067506531965429 2.940987696804247 0 0 0
361 1 4.089999999999993 4.0899999999999945 2.9409876968042523 0 0 0
362 1 4.089999999999991 6.0675065319654395 5.117800274139661 0 0 0
363 1 6.0635859988578105 4.089999999999996 5.117800274139638 0 0 0
364 1 6.063585998857809 6.067506531965423 2.9409876968042434 0 0 0
5 1 0.14282800228429565 8.045013063930899 7.288800338960529 0 -1 0
8 1 2.1164140011421217 2.1124934680345215 7.288800338960549 0 0 0
245 1 4.08999999999998 8.045013063930899 7.288800338960549 0 -1 0
248 1 6.063585998857813 2.112493468034523 7.288800338960561 0 0 0
125 1 0.1428280022843076 4.0899999999999945 7.288800338960549 0 0 0
128 1 2.1164140011421315 6.067506531965437 7.288800338960533 0 0 0
365 1 4.089999999999992 4.090000000000002 7.288800338960549 0 0 0
368 1 6.063585998857813 6.06750653196544 7.288800338960549 0 0 0
6 1 0.1428280022843041 2.1124934680345318 9.41835934906241 0 0 0
7 1 2.1164140011421213 0.13498693606909345 9.41835934906239 0 0 0
9 1 0.1428280022843005 0.1349869360690997 11.533312323510973 0 0 0
12 1 2.1164140011421093 2.1124934680345375 11.533312323510994 0 0 0
246 1 4.090000000000008 2.112493468034527 9.418359349062408 0 0 0
247 1 6.063585998857814 0.13498693606909523 9.41835934906241 0 0 0
249 1 4.089999999999996 8.045013063930895 11.533312323510994 0 -1 0
252 1 6.063585998857821 2.1124934680345184 11.533312323510959 0 0 0
126 1 0.1428280022842925 6.067506531965427 9.418359349062408 0 0 0
127 1 2.1164140011421204 4.089999999999987 9.418359349062428 0 0 0
129 1 0.14282800228431092 4.089999999999989 11.533312323510987 0 0 0
132 1 2.1164140011421217 6.067506531965423 11.533312323510994 0 0 0
366 1 4.089999999999994 6.067506531965421 9.418359349062408 0 0 0
367 1 6.063585998857814 4.0899999999999945 9.41835934906241 0 0 0
369 1 4.089999999999984 4.089999999999982 11.533312323510959 0 0 0
372 1 6.06358599885781 6.0675065319654236 11.533312323510973 0 0 0
10 1 0.1428280022843075 2.1124934680345215 13.65998701659488 0 0 0
11 1 2.1164140011421235 0.13498693606909523 13.65998701659488 0 0 0
13 2 0.14282800228431441 8.045013063930913 15.802857267864074 0 -1 0
16 2 2.1164140011421333 2.1124934680345375 15.802857267864074 0 0 0
250 1 4.0899999999999785 2.112493468034519 13.65998701659488 0 0 0
251 1 6.0635859988578105 0.13498693606909345 13.659987016594886 0 0 0
253 2 4.089999999999993 8.045013063930906 15.802857267864074 0 -1 0
256 2 6.063585998857819 2.112493468034533 15.802857267864074 0 0 0
130 1 0.14282800228431097 6.0675065319654236 13.659987016594886 0 0 0
131 1 2.11641400114212 4.089999999999989 13.65998701659488 0 0 0
133 2 0.1428280022842925 4.089999999999985 15.802857267864074 0 0 0
136 2 2.116414001142138 6.067506531965427 15.802857267864074 0 0 0
370 1 4.089999999999992 6.067506531965427 13.65998701659488 0 0 0
371 1 6.063585998857829 4.089999999999987 13.65998701659488 0 0 0
373 2 4.089999999999981 4.089999999999987 15.80285726786407 0 0 0
376 2 6.06358599885781 6.06750653196542 15.802857267864074 0 0 0
14 2 0.1428280022842925 2.112493468034538 18.012715633765183 0 0 0
15 2 2.116414001142123 8.04501306393091 18.01271563376516 0 -1 0
17 2 0.14282800228430567 8.045013063930906 20.186298751476475 0 -1 0
20 2 2.1164140011421257 2.112493468034538 20.186298751476475 0 0 0
254 2 4.089999999999989 2.112493468034529 18.012715633765147 0 0 0
255 2 6.063585998857815 8.045013063930913 18.012715633765154 0 -1 0
257 2 4.0899999999999865 8.045013063930906 20.1862987514765 0 -1 0
260 2 6.063585998857815 2.1124934680345366 20.1862987514765 0 0 0
134 2 0.14282800228430095 6.067506531965424 18.012715633765147 0 0 0
135 2 2.11641400114212 4.089999999999985 18.012715633765154 0 0 0
137 2 0.14282800228429918 4.089999999999985 20.1862987514765 0 0 0
140 2 2.116414001142121 6.067506531965421 20.1862987514765 0 0 0
374 2 4.089999999999991 6.067506531965422 18.01271563376519 0 0 0
375 2 6.0635859988578185 4.089999999999983 18.012715633765154 0 0 0
377 2 4.089999999999984 4.089999999999971 20.186298751476475 0 0 0
380 2 6.063585998857829 6.067506531965422 20.186298751476475 0 0 0
18 2 0.14282800228430917 2.1124934680345313 22.381787232582653 0 0 0
19 2 2.1164140011421333 8.045013063930913 22.381787232582653 0 -1 0
21 2 0.14282800228430095 8.045013063930899 24.592042257739433 0 -1 0
24 2 2.1164140011421226 2.112493468034533 24.592042257739433 0 0 0
258 2 4.089999999999986 2.1124934680345375 22.381787232582653 0 0 0
259 2 6.063585998857811 0.13498693606909698 22.38178723258263 0 0 0
261 2 4.089999999999973 8.045013063930906 24.592042257739433 0 -1 0
264 2 6.063585998857812 2.1124934680345366 24.592042257739433 0 0 0
138 2 0.1428280022842992 6.06750653196542 22.381787232582653 0 0 0
139 2 2.116414001142137 4.089999999999978 22.38178723258263 0 0 0
141 2 0.14282800228431783 4.089999999999987 24.592042257739482 0 0 0
144 2 2.116414001142124 6.067506531965414 24.592042257739482 0 0 0
378 2 4.089999999999975 6.067506531965421 22.381787232582653 0 0 0
379 2 6.063585998857812 4.089999999999985 22.381787232582653 0 0 0
381 2 4.089999999999986 4.089999999999987 24.592042257739433 0 0 0
384 2 6.063585998857822 6.06750653196543 24.592042257739433 0 0 0
22 2 0.14282800228429918 2.112493468034538 26.859176489226737 0 0 0
23 2 2.1164140011421213 8.045013063930902 26.85917648922674 0 -1 0
25 3 0.1428280022843047 8.045013063930913 28.74551485183041 0 -1 0
28 3 2.1164140011421266 2.1124934680345078 28.74551485183041 0 0 0
262 2 4.089999999999985 2.1124934680345366 26.85917648922674 0 0 0
263 2 6.063585998857811 8.045013063930906 26.85917648922673 0 -1 0
265 3 4.0899999999999945 8.04501306393091 28.745514851830404 0 -1 0
268 3 6.063585998857815 2.112493468034521 28.74551485183039 0 0 0
142 2 0.14282800228430625 6.0675065319654236 26.8591764892267 0 0 0
143 2 2.116414001142121 4.089999999999982 26.859176489226694 0 0 0
145 3 8.0371719977157 4.089999999999966 28.74551485183041 -1 0 0
148 3 2.1164140011421333 6.067506531965452 28.745514851830425 0 0 0
382 2 4.089999999999981 6.067506531965423 26.85917648922673 0 0 0
383 2 6.063585998857812 4.089999999999982 26.85917648922673 0 0 0
385 3 4.090000000000002 4.089999999999979 28.745514851830404 0 0 0
388 3 6.063585998857809 6.067506531965426 28.745514851830396 0 0 0
26 3 0.14282800228430473 2.112493468034523 30.348310702804945 0 0 0
27 3 2.116414001142121 0.13498693606909348 30.34831070280496 0 0 0
29 3 8.0371719977157 8.045013063930906 31.957542314585357 -1 -1 0
32 3 2.1164140011421226 2.1124934680345215 31.957542314585357 0 0 0
266 3 4.089999999999984 2.1124934680345193 30.34831070280496 0 0 0
267 3 6.0635859988578185 0.13498693606909345 30.34831070280493 0 0 0
269 3 4.089999999999983 8.045013063930913 31.957542314585357 0 -1 0
272 3 6.063585998857811 2.1124934680345238 31.957542314585357 0 0 0
146 3 0.14282800228430056 6.067506531965427 30.34831070280496 0 0 0
147 3 2.116414001142123 4.089999999999975 30.348310702804973 0 0 0
149 3 0.14282800228430306 4.089999999999986 31.957542314585357 0 0 0
152 3 2.1164140011421204 6.067506531965417 31.957542314585357 0 0 0
386 3 4.089999999999986 6.0675065319654236 30.34831070280493 0 0 0
387 3 6.063585998857809 4.089999999999984 30.34831070280496 0 0 0
389 3 4.089999999999979 4.089999999999975 31.957542314585357 0 0 0
392 3 6.063585998857818 6.067506531965423 31.957542314585385 0 0 0
30 3 0.14282800228429732 2.112493468034525 33.617460219308484 0 0 0
31 3 2.1164140011421333 8.045013063930902 33.61746021930855 0 -1 0
33 3 0.1428280022842925 8.045013063930895 35.308520583858 0 -1 0
36 3 2.1164140011421293 2.112493468034524 35.308520583858 0 0 0
270 3 4.089999999999983 2.112493468034521 33.61746021930855 0 0 0
271 3 6.063585998857826 8.045013063930899 33.617460219308505 0 -1 0
273 3 4.089999999999981 8.045013063930906 35.308520583858 0 -1 0
276 3 6.063585998857824 2.1124934680345304 35.308520583858 0 0 0
150 3 0.14282800228429393 6.06750653196543 33.61746021930855 0 0 0
151 3 2.116414001142126 4.089999999999982 33.617460219308505 0 0 0
153 3 8.0371719977157 4.089999999999984 35.308520583858 -1 0 0
156 3 2.1164140011421244 6.067506531965435 35.308520583858 0 0 0
390 3 4.089999999999984 6.067506531965424 33.617460219308505 0 0 0
391 3 6.063585998857818 4.089999999999982 33.61746021930855 0 0 0
393 3 4.089999999999983 4.089999999999982 35.308520583858 0 0 0
396 3 6.06358599885783 6.067506531965438 35.308520583858 0 0 0
34 3 0.14282800228430373 2.112493468034533 37.071282622332774 0 0 0
35 3 2.1164140011421333 8.045013063930913 37.07128262233274 0 -1 0
37 4 0.14282800228431117 8.045013063930913 38.89497684247349 0 -1 0
40 4 2.116414001142126 2.1124934680345406 38.89497684247335 0 0 0
274 3 4.08999999999996 2.1124934680345278 37.07128262233274 0 0 0
275 3 6.06358599885782 8.045013063930899 37.071282622332696 0 -1 0
277 4 4.0899999999999705 0.1349869360690934 38.89497684247349 0 0 0
280 4 6.063585998857819 2.1124934680345313 38.89497684247349 0 0 0
154 3 8.03717199771571 6.067506531965426 37.071282622332674 -1 0 0
155 3 2.1164140011421275 4.089999999999954 37.07128262233274 0 0 0
157 4 0.14282800228432102 4.089999999999986 38.89497684247349 0 0 0
160 4 2.1164140011421235 6.06750653196541 38.89497684247349 0 0 0
394 3 4.089999999999982 6.067506531965431 37.071282622332745 0 0 0
395 3 6.0635859988578265 4.089999999999979 37.07128262233274 0 0 0
397 4 4.089999999999959 4.089999999999973 38.89497684247349 0 0 0
400 4 6.063585998857817 6.067506531965416 38.89497684247349 0 0 0
38 4 8.03717199771571 2.11249346803452 40.81638431711441 -1 0 0
39 4 2.1164140011421315 8.045013063930902 40.81638431711444 0 -1 0
41 4 0.14282800228431097 0.13498693606910314 42.78542048709534 0 0 0
44 4 2.1164140011421173 2.1124934680345184 42.78542048709535 0 0 0
278 4 4.089999999999995 2.112493468034526 40.81638431711433 0 0 0
279 4 6.0635859988578105 0.13498693606909343 40.81638431711441 0 0 0
281 4 4.089999999999975 8.04501306393091 42.785420487095365 0 -1 0
284 4 6.063585998857829 2.112493468034524 42.785420487095365 0 0 0
158 4 0.14282800228430095 6.067506531965414 40.816384317114384 0 0 0
159 4 2.116414001142137 4.090000000000002 40.816384317114384 0 0 0
161 4 0.14282800228429882 4.089999999999968 42.78542048709534 0 0 0
164 4 2.1164140011421275 6.067506531965427 42.785420487095365 0 0 0
398 4 4.089999999999971 6.06750653196541 40.81638431711441 0 0 0
399 4 6.063585998857806 4.08999999999998 40.81638431711444 0 0 0
401 4 4.089999999999984 4.089999999999993 42.785420487095365 0 0 0
404 4 6.063585998857807 6.067506531965415 42.78542048709534 0 0 0
42 4 0.1428280022842925 2.112493468034514 44.754515313885754 0 0 0
43 4 2.1164140011421413 8.045013063930899 44.75451531388575 0 -1 0
45 4 0.1428280022843109 0.1349869360691032 46.738077955368496 0 0 0
48 4 2.11641400114213 2.1124934680345198 46.738077955368496 0 0 0
282 4 4.089999999999979 2.1124934680345033 44.75451531388576 0 0 0
283 4 6.063585998857804 0.13498693606909695 44.75451531388575 0 0 0
285 4 4.089999999999969 0.13498693606910672 46.738077955368496 0 0 0
288 4 6.063585998857814 2.1124934680345238 46.738077955368496 0 0 0
162 4 0.1428280022843039 6.067506531965435 44.75451531388576 0 0 0
163 4 2.116414001142137 4.089999999999985 44.75451531388576 0 0 0
165 4 0.1428280022843204 4.089999999999982 46.738077955368496 0 0 0
168 4 2.1164140011421275 6.067506531965417 46.738077955368496 0 0 0
402 4 4.08999999999997 6.067506531965435 44.75451531388576 0 0 0
403 4 6.063585998857807 4.089999999999979 44.75451531388576 0 0 0
405 4 4.089999999999972 4.089999999999979 46.738077955368496 0 0 0
408 4 6.0635859988578105 6.067506531965414 46.738077955368496 0 0 0
46 4 0.14282800228431183 2.112493468034521 48.68304223703751 0 0 0
47 4 2.1164140011420987 8.04501306393091 48.68304223703751 0 -1 0
49 5 0.1428280022842925 8.045013063930888 50.44215545793407 0 -1 0
52 5 2.116414001142148 2.1124934680345215 50.44215545793407 0 0 0
286 4 4.089999999999972 2.1124934680345397 48.68304223703751 0 0 0
287 4 6.063585998857832 0.13498693606911014 48.68304223703749 0 0 0
289 5 4.089999999999973 8.04501306393091 50.44215545793413 0 -1 0
292 5 6.063585998857809 2.1124934680345215 50.44215545793413 0 0 0
166 4 0.14282800228432363 6.067506531965427 48.68304223703751 0 0 0
167 4 2.116414001142121 4.089999999999979 48.68304223703751 0 0 0
169 5 0.1428280022842925 4.089999999999979 50.44215545793413 0 0 0
172 5 2.1164140011421257 6.0675065319654395 50.44215545793407 0 0 0
406 4 4.089999999999957 6.067506531965414 48.683042237037526 0 0 0
407 4 6.063585998857812 4.089999999999961 48.68304223703751 0 0 0
409 5 4.089999999999973 4.089999999999954 50.44215545793414 0 0 0
412 5 6.06358599885783 6.067506531965429 50.44215545793413 0 0 0
50 5 8.037171997715683 2.112493468034538 52.109433827101086 -1 0 0
51 5 2.116414001142135 8.045013063930895 52.109433827101086 0 -1 0
53 5 8.037171997715696 8.045013063930895 53.77849802146764 -1 -1 0
56 5 2.1164140011421164 2.1124934680345278 53.77849802146766 0 0 0
290 5 4.089999999999984 2.1124934680345215 52.10943382710098 0 0 0
291 5 6.063585998857821 8.045013063930892 52.109433827101086 0 -1 0
293 5 4.089999999999975 8.045013063930881 53.77849802146766 0 -1 0
296 5 6.06358599885785 2.112493468034523 53.77849802146764 0 0 0
170 5 8.03717199771568 6.067506531965429 52.109433827101086 -1 0 0
171 5 2.1164140011421235 4.089999999999986 52.109433827101086 0 0 0
173 5 8.037171997715696 4.089999999999984 53.77849802146764 -1 0 0
176 5 2.1164140011421315 6.067506531965438 53.77849802146764 0 0 0
410 5 4.0899999999999945 6.0675065319654395 52.109433827101086 0 0 0
411 5 6.06358599885783 4.089999999999987 52.109433827101086 0 0 0
413 5 4.0899999999999785 4.09 53.77849802146764 0 0 0
416 5 6.063585998857832 6.067506531965431 53.77849802146764 0 0 0
54 5 8.037171997715685 2.112493468034524 55.51177508682188 -1 0 0
55 5 2.116414001142124 8.045013063930881 55.51177508682188 0 -1 0
57 5 0.1428280022843014 8.04501306393091 57.13015624198205 0 -1 0
60 5 2.1164140011421297 2.112493468034531 57.13015624198207 0 0 0
294 5 4.089999999999992 2.112493468034525 55.51177508682188 0 0 0
295 5 6.063585998857832 8.045013063930906 55.51177508682188 0 -1 0
297 5 4.08999999999998 8.04501306393091 57.13015624198207 0 -1 0
300 5 6.063585998857823 2.112493468034527 57.13015624198207 0 0 0
174 5 0.14282800228429365 6.067506531965429 55.51177508682188 0 0 0
175 5 2.116414001142123 4.089999999999996 55.51177508682188 0 0 0
177 5 0.14282800228430523 4.089999999999982 57.13015624198207 0 0 0
180 5 2.1164140011421315 6.067506531965438 57.13015624198207 0 0 0
414 5 4.089999999999973 6.067506531965431 55.51177508682188 0 0 0
415 5 6.063585998857832 4.089999999999984 55.51177508682188 0 0 0
417 5 4.089999999999981 4.089999999999979 57.13015624198205 0 0 0
420 5 6.063585998857827 6.067506531965427 57.13015624198207 0 0 0
58 5 0.14282800228429393 2.1124934680345047 58.67866547510328 0 0 0
59 5 2.1164140011421098 8.045013063930913 58.67866547510328 0 -1 0
61 6 0.14282800228430223 0.1349869360690963 60.53426749675828 0 0 0
64 6 2.116414001142124 2.112493468034516 60.53426749675828 0 0 0
298 5 4.0899999999999705 2.112493468034533 58.67866547510328 0 0 0
299 5 6.063585998857836 8.045013063930899 58.67866547510328 0 -1 0
301 6 4.089999999999977 0.13498693606910264 60.53426749675834 0 0 0
304 6 6.063585998857817 2.1124934680345238 60.53426749675828 0 0 0
178 5 8.037171997715689 6.067506531965438 58.67866547510324 -1 0 0
179 5 2.116414001142134 4.089999999999954 58.67866547510324 0 0 0
181 6 0.14282800228430065 4.089999999999986 60.53426749675834 0 0 0
184 6 2.1164140011421213 6.067506531965421 60.53426749675834 0 0 0
418 5 4.089999999999985 6.067506531965413 58.678665475103216 0 0 0
419 5 6.0635859988578 4.089999999999984 58.67866547510324 0 0 0
421 6 4.089999999999982 4.089999999999985 60.53426749675828 0 0 0
424 6 6.063585998857818 6.067506531965421 60.53426749675834 0 0 0
62 6 0.14282800228429923 2.112493468034517 62.683180470883265 0 0 0
63 6 2.1164140011421297 8.045013063930913 62.683180470883265 0 -1 0
65 6 0.14282800228430403 0.13498693606909695 64.80546478566971 0 0 0
68 6 2.1164140011421204 2.112493468034517 64.80546478566967 0 0 0
302 6 4.08999999999999 2.112493468034523 62.683180470883265 0 0 0
303 6 6.063585998857807 8.04501306393091 62.68318047088321 0 -1 0
305 6 4.089999999999986 8.045013063930888 64.80546478566974 0 -1 0
308 6 6.063585998857827 2.1124934680345127 64.80546478566974 0 0 0
182 6 0.14282800228430376 6.067506531965413 62.68318047088321 0 0 0
183 6 2.116414001142118 4.090000000000003 62.683180470883265 0 0 0
185 6 0.1428280022843023 4.090000000000007 64.80546478566974 0 0 0
188 6 2.116414001142127 6.067506531965429 64.80546478566974 0 0 0
422 6 4.089999999999984 6.06750653196543 62.683180470883265 0 0 0
423 6 6.0635859988578105 4.089999999999987 62.68318047088321 0 0 0
425 6 4.089999999999984 4.0899999999999945 64.80546478566971 0 0 0
428 6 6.063585998857813 6.067506531965431 64.80546478566974 0 0 0
66 6 8.037171997715683 2.1124934680344984 66.88418856706797 -1 0 0
67 6 2.11641400114212 8.04501306393091 66.88418856706797 0 -1 0
69 6 8.037171997715678 0.1349869360690917 68.96476423743665 -1 0 0
72 6 2.1164140011421235 2.1124934680345437 68.96476423743661 0 0 0
306 6 4.0900000000000025 2.11249346803452 66.88418856706811 0 0 0
307 6 6.063585998857826 0.13498693606909987 66.884188567068 0 0 0
309 6 4.089999999999998 8.045013063930906 68.96476423743658 0 -1 0
312 6 6.063585998857819 2.112493468034506 68.96476423743654 0 0 0
186 6 8.03717199771569 6.067506531965427 66.884188567068 -1 0 0
187 6 2.116414001142134 4.0899999999999945 66.88418856706798 0 0 0
189 6 0.14282800228431802 4.089999999999996 68.96476423743665 0 0 0
192 6 2.1164140011421213 6.067506531965418 68.96476423743665 0 0 0
426 6 4.090000000000015 6.067506531965429 66.88418856706801 0 0 0
427 6 6.063585998857815 4.090000000000012 66.884188567068 0 0 0
429 6 4.089999999999985 4.089999999999985 68.96476423743653 0 0 0
432 6 6.063585998857821 6.067506531965454 68.96476423743648 0 0 0
70 6 0.14282800228437093 2.112493468034519 71.00567221723756 0 0 0
71 6 2.116414001142119 0.13498693606910972 71.00567221723752 0 0 0
73 7 0.14282800228432543 8.045013063930881 73.00979102409946 0 -1 0
76 7 2.1164140011421595 2.112493468034465 73.00979102409929 0 0 0
310 6 4.089999999999958 2.112493468034522 71.0056722172375 0 0 0
311 6 6.0635859988578265 8.045013063930899 71.00567221723757 0 -1 0
313 7 4.089999999999938 0.13498693606911782 73.00979102409948 0 0 0
316 7 6.063585998857795 2.1124934680345535 73.00979102409947 0 0 0
190 6 0.14282800228431677 6.067506531965438 71.00567221723752 0 0 0
191 6 2.1164140011421164 4.0899999999999785 71.00567221723756 0 0 0
193 7 8.037171997715662 4.090000000000072 73.00979102409948 -1 0 0
196 7 2.1164140011420955 6.067506531965469 73.00979102409946 0 0 0
430 6 4.089999999999974 6.067506531965435 71.00567221723757 0 0 0
431 6 6.063585998857813 4.090000000000021 71.0056722172375 0 0 0
433 7 4.0900000000000345 4.090000000000007 73.00979102409946 0 0 0
436 7 6.063585998857889 6.067506531965354 73.00979102409947 0 0 0
74 7 8.037171997715681 2.112493468034481 75.0336175105674 -1 0 0
75 7 2.1164140011421164 8.045013063930902 75.03361751056703 0 -1 0
77 7 8.037171997715632 0.13498693606919332 77.04493721843178 -1 0 0
80 7 2.116414001142043 2.1124934680345375 77.04493721843178 0 0 0
314 7 4.0900000000000025 2.1124934680345113 75.03361751056705 0 0 0
315 7 6.06358599885785 0.13498693606913126 75.03361751056728 0 0 0
317 7 4.09000000000005 8.04501306393087 77.04493721843178 0 -1 0
320 7 6.063585998857912 2.11249346803445 77.04493721843183 0 0 0
194 7 0.1428280022843062 6.067506531965408 75.03361751056703 0 0 0
195 7 2.11641400114216 4.090000000000086 75.0336175105673 0 0 0
197 7 0.14282800228430953 4.089999999999978 77.04493721843183 0 0 0
200 7 2.11641400114223 6.067506531965327 77.04493721843173 0 0 0
434 7 4.089999999999954 6.0675065319653605 75.03361751056737 0 0 0
435 7 6.06358599885781 4.090000000000048 75.03361751056701 0 0 0
437 7 4.0899999999999626 4.090000000000145 77.04493721843168 0 0 0
440 7 6.06358599885775 6.0675065319654085 77.04493721843183 0 0 0
78 7 0.14282800228430048 2.1124934680344856 79.04085206566828 0 0 0
79 7 2.1164140011421497 0.13498693606916215 79.04085206566856 0 0 0
81 7 0.14282800228433604 8.045013063930893 81.04378530867163 0 -1 0
84 7 2.116414001142194 2.1124934680344407 81.04378530867172 0 0 0
318 7 4.090000000000006 2.1124934680344425 79.04085206566855 0 0 0
319 7 6.063585998857817 0.13498693606913134 79.04085206566828 0 0 0
321 7 4.089999999999925 0.13498693606918605 81.04378530867172 0 0 0
324 7 6.063585998857781 2.1124934680344962 81.04378530867172 0 0 0
198 7 8.037171997715673 6.06750653196538 79.04085206566855 -1 0 0
199 7 2.1164140011421004 4.090000000000043 79.04085206566828 0 0 0
201 7 8.03717199771568 4.0900000000001 81.04378530867172 -1 0 0
204 7 2.1164140011420582 6.067506531965426 81.04378530867172 0 0 0
438 7 4.089999999999994 6.067506531965405 79.04085206566828 0 0 0
439 7 6.063585998857857 4.090000000000042 79.04085206566823 0 0 0
441 7 4.089999999999991 4.08999999999998 81.04378530867176 0 0 0
444 7 6.063585998857902 6.0675065319653845 81.04378530867174 0 0 0
82 7 0.14282800228429562 2.1124934680344882 83.02800130882073 0 0 0
83 7 2.116414001142147 8.04501306393091 83.02800130882055 0 -1 0
85 8 8.037171997715689 0.13498693606912626 84.90591464925755 -1 0 0
88 8 2.116414001142083 2.1124934680345024 84.90591464925755 0 0 0
322 7 4.089999999999969 2.1124934680345007 83.0280013088204 0 0 0
323 7 6.063585998857797 8.045013063930906 83.02800130882055 0 -1 0
325 8 4.089999999999991 8.045013063930913 84.90591464925727 0 -1 0
328 8 6.0635859988578655 2.1124934680345033 84.90591464925755 0 0 0
202 7 0.14282800228432807 6.0675065319654236 83.02800130882038 0 0 0
203 7 2.116414001142164 4.090000000000066 83.02800130882055 0 0 0
205 8 0.14282800228429562 4.089999999999949 84.90591464925755 0 0 0
208 8 2.1164140011421373 6.067506531965451 84.90591464925727 0 0 0
442 7 4.089999999999991 6.0675065319654005 83.02800130882058 0 0 0
443 7 6.063585998857784 4.090000000000042 83.02800130882055 0 0 0
445 8 4.089999999999992 4.090000000000022 84.90591464925727 0 0 0
448 8 6.0635859988578025 6.067506531965449 84.90591464925723 0 0 0
86 8 8.03717199771571 2.1124934680345127 86.71214037370943 -1 0 0
87 8 2.116414001142084 0.13498693606909334 86.7121403737097 0 0 0
89 8 8.037171997715687 0.13498693606911807 88.52729971386077 -1 0 0
92 8 2.116414001142099 2.112493468034577 88.52729971386076 0 0 0
326 8 4.089999999999984 2.112493468034533 86.7121403737097 0 0 0
327 8 6.063585998857871 0.1349869360691167 86.71214037370952 0 0 0
329 8 4.090000000000034 8.045013063930876 88.52729971386073 0 -1 0
332 8 6.063585998857853 2.112493468034505 88.52729971386081 0 0 0
206 8 0.14282800228430273 6.0675065319654475 86.71214037370966 0 0 0
207 8 2.116414001142101 4.089999999999961 86.71214037370963 0 0 0
209 8 0.14282800228434353 4.089999999999945 88.52729971386073 0 0 0
212 8 2.116414001142175 6.067506531965382 88.52729971386071 0 0 0
446 8 4.089999999999973 6.067506531965422 86.71214037370952 0 0 0
447 8 6.063585998857853 4.089999999999948 86.7121403737097 0 0 0
449 8 4.089999999999941 4.090000000000046 88.52729971386073 0 0 0
452 8 6.063585998857771 6.067506531965466 88.52729971386081 0 0 0
90 8 0.14282800228432346 2.1124934680345464 90.3281820669681 0 0 0
91 8 2.116414001142134 0.13498693606909345 90.32818206696798 0 0 0
93 8 0.14282800228450573 8.04501306393059 92.12687408512683 0 -1 0
96 8 2.1164140011424397 2.1124934680343097 92.12687408512683 0 0 0
330 8 4.089999999999981 2.112493468034533 90.32818206696787 0 0 0
331 8 6.063585998857807 8.045013063930906 90.32818206696798 0 -1 0
333 8 4.089999999999757 0.13498693606937295 92.12687408512687 0 0 0
336 8 6.0635859988575165 2.1124934680347365 92.12687408512687 0 0 0
210 8 0.14282800228431725 6.06750653196543 90.32818206696787 0 0 0
211 8 2.11641400114213 4.089999999999991 90.32818206696813 0 0 0
213 8 8.037171997715483 4.090000000000279 92.12687408512684 -1 0 0
216 8 2.1164140011418486 6.067506531965649 92.12687408512687 0 0 0
450 8 4.089999999999982 6.067506531965425 90.3281820669681 0 0 0
451 8 6.0635859988578185 4.089999999999987 90.32818206696786 0 0 0
453 8 4.090000000000176 4.089999999999683 92.12687408512683 0 0 0
456 8 6.063585998858119 6.067506531965217 92.12687408512676 0 0 0
94 8 8.0371719977157 2.112493468034522 93.9415830135474 -1 0 0
95 8 2.1164140011420995 8.04501306393091 93.94158301354959 0 -1 0
97 9 8.03717199771467 0.13498693607068 95.78071360567742 -1 0 0
100 9 2.1164140011404937 2.11249346803554 95.7807136056777 0 0 0
334 8 4.089999999999984 2.1124934680345633 93.94158301354999 0 0 0
335 8 6.063585998857868 8.045013063930892 93.941583013548 0 -1 0
337 9 4.090000000001007 8.045013063929243 95.78071360567752 0 -1 0
340 9 6.063585998859479 2.1124934680335383 95.78071360567756 0 0 0
214 8 8.03717199771568 6.067506531965446 93.9415830135504 -1 0 0
215 8 2.1164140011421524 4.08999999999998 93.941583013548 0 0 0
217 9 0.14282800228527529 4.0899999999983985 95.78071360567728 0 0 0
220 9 2.116414001143739 6.067506531964409 95.78071360567756 0 0 0
454 8 4.090000000000019 6.067506531965403 93.9415830135474 0 0 0
455 8 6.063585998857824 4.090000000000014 93.94158301354972 0 0 0
457 9 4.089999999998979 4.090000000001625 95.78071360567742 0 0 0
460 9 6.0635859988562295 6.067506531966424 95.78071360567742 0 0 0
98 9 8.037171997715687 2.1124934680345775 97.5169190856602 -1 0 0
99 9 2.116414001142187 8.045013063930888 97.51691908565495 0 -1 0
101 9 0.14282800228572162 8.045013063928545 99.3689096387778 0 -1 0
104 9 2.116414001144469 2.1124934680330827 99.36890963877774 0 0 0
338 9 4.090000000000019 2.1124934680344953 97.51691908565434 0 0 0
339 9 6.06358599885779 0.13498693606912388 97.51691908565903 0 0 0
341 9 4.089999999998535 0.13498693607144052 99.36890963877762 0 0 0
344 9 6.063585998855495 2.1124934680360066 99.36890963877752 0 0 0
218 9 0.14282800228430267 6.067506531965398 97.5169190856542 0 0 0
219 9 2.1164140011420987 4.090000000000021 97.51691908565903 0 0 0
221 9 8.03717199771423 4.0900000000023455 99.3689096387776 -1 0 0
224 9 2.1164140011397845 6.067506531966896 99.36890963877747 0 0 0
458 9 4.089999999999945 6.0675065319654795 97.51691908566018 0 0 0
459 9 6.063585998857875 4.089999999999945 97.51691908565498 0 0 0
461 9 4.0900000000014725 4.089999999997638 99.3689096387777 0 0 0
464 9 6.063585998860201 6.067506531963953 99.36890963877745 0 0 0
102 9 0.14282800228432369 2.1124934680344962 101.14186188018901 0 0 0
103 9 2.11641400114212 8.045013063930913 101.14186188019853 0 -1 0
105 9 8.037171997713351 0.13498693607250048 103.00139507238443 -1 0 0
108 9 2.1164140011383927 2.112493468036804 103.00139507238428 0 0 0
342 9 4.0899999999999315 2.112493468034527 101.1418618802006 0 0 0
343 9 6.063585998857864 8.04501306393091 101.14186188019097 0 -1 0
345 9 4.090000000002367 8.04501306392745 103.00139507238431 0 -1 0
348 9 6.06358599886155 2.1124934680324245 103.00139507238453 0 0 0
222 9 8.037171997715689 6.067506531965462 101.14186188020054 -1 0 0
223 9 2.116414001142153 4.089999999999955 101.14186188019104 0 0 0
225 9 0.14282800228657921 4.089999999996566 103.00139507238458 0 0 0
228 9 2.11641400114573 6.067506531963182 103.00139507238414 0 0 0
462 9 4.089999999999978 6.067506531965441 101.14186188018888 0 0 0
463 9 6.063585998857831 4.090000000000019 101.14186188019832 0 0 0
465 9 4.089999999997695 4.090000000003428 103.00139507238465 0 0 0
468 9 6.063585998854252 6.067506531967556 103.00139507238472 0 0 0
106 9 0.14282800228429465 2.112493468034539 104.66726625091587 0 0 0
107 9 2.116414001142121 0.13498693606911275 104.66726625090222 0 0 0
109 10 8.037171997715118 0.13498693607024856 106.62824259429453 -1 0 0
112 10 2.1164140011412256 2.1124934680352787 106.62824259429448 0 0 0
346 9 4.090000000000021 2.112493468034576 104.66726625089917 0 0 0
347 9 6.063585998857806 8.045013063930838 104.66726625091276 0 -1 0
349 10 4.09000000000057 8.045013063929712 106.62824259429462 0 -1 0
352 10 6.0635859988587315 2.1124934680338154 106.62824259429462 0 0 0
226 9 8.037171997715596 6.067506531965448 104.66726625089906 -1 0 0
227 9 2.116414001142179 4.08999999999992 104.66726625091269 0 0 0
229 10 0.14282800228483095 4.089999999998817 106.62824259429462 0 0 0
232 10 2.1164140011430748 6.067506531964711 106.62824259429462 0 0 0
466 9 4.090000000000081 6.067506531965446 104.66726625091583 0 0 0
467 9 6.063585998857775 4.090000000000002 104.66726625090192 0 0 0
469 10 4.089999999999431 4.090000000001165 106.6282425942945 0 0 0
472 10 6.063585998856894 6.06750653196617 106.62824259429462 0 0 0
110 10 8.037171997715685 2.1124934680345304 108.92376042807672 -1 0 0
111 10 2.1164140011421155 8.045013063930874 108.92376042807817 0 -1 0
113 10 8.037171997715685 0.1349869360691015 111.61396338822183 -1 0 0