(written by ASE)

480 atoms
10 atom types

0.0      8.1799999999999997  xlo xhi
0.0      8.1799999999999997  ylo yhi
0.0      122.69999999999999  zlo zhi

Atoms # atomic

     1   1                       0                       0                       0
     2   1                       0      2.0449999999999999      2.0449999999999999
     3   1      2.0449999999999999                       0      2.0449999999999999
     4   1      2.0449999999999999      2.0449999999999999                       0
     5   1                       0                       0      4.0899999999999999
     6   1                       0      2.0449999999999999      6.1349999999999998
     7   1      2.0449999999999999                       0      6.1349999999999998
     8   1      2.0449999999999999      2.0449999999999999      4.0899999999999999
     9   1                       0                       0      8.1799999999999997
    10   1                       0      2.0449999999999999                  10.225
    11   1      2.0449999999999999                       0                  10.225
    12   1      2.0449999999999999      2.0449999999999999      8.1799999999999997
    13   2                       0                       0                   12.27
    14   2                       0      2.0449999999999999                  14.315
    15   2      2.0449999999999999                       0                  14.315
    16   2      2.0449999999999999      2.0449999999999999                   12.27
    17   2                       0                       0      16.359999999999999
    18   2                       0      2.0449999999999999      18.405000000000001
    19   2      2.0449999999999999                       0      18.405000000000001
    20   2      2.0449999999999999      2.0449999999999999      16.359999999999999
    21   2                       0                       0      20.449999999999999
    22   2                       0      2.0449999999999999      22.494999999999997
    23   2      2.0449999999999999                       0      22.494999999999997
    24   2      2.0449999999999999      2.0449999999999999      20.449999999999999
    25   3                       0                       0      24.539999999999999
    26   3                       0      2.0449999999999999      26.585000000000001
    27   3      2.0449999999999999                       0      26.585000000000001
    28   3      2.0449999999999999      2.0449999999999999      24.539999999999999
    29   3                       0                       0      28.629999999999999
    30   3                       0      2.0449999999999999      30.674999999999997
    31   3      2.0449999999999999                       0      30.674999999999997
    32   3      2.0449999999999999      2.0449999999999999      28.629999999999999
    33   3                       0                       0      32.719999999999999
    34   3                       0      2.0449999999999999      34.765000000000001
    35   3      2.0449999999999999                       0      34.765000000000001
    36   3      2.0449999999999999      2.0449999999999999      32.719999999999999
    37   4                       0                       0      36.810000000000002
    38   4                       0      2.0449999999999999      38.855000000000004
    39   4      2.0449999999999999                       0      38.855000000000004
    40   4      2.0449999999999999      2.0449999999999999      36.810000000000002
    41   4                       0                       0      40.899999999999999
    42   4                       0      2.0449999999999999                  42.945
    43   4      2.0449999999999999                       0                  42.945
    44   4      2.0449999999999999      2.0449999999999999      40.899999999999999
    45   4                       0                       0      44.989999999999995
    46   4                       0      2.0449999999999999      47.034999999999997
    47   4      2.0449999999999999                       0      47.034999999999997
    48   4      2.0449999999999999      2.0449999999999999      44.989999999999995
    49   5                       0                       0      49.079999999999998
    50   5                       0      2.0449999999999999                  51.125
    51   5      2.0449999999999999                       0                  51.125
    52   5      2.0449999999999999      2.0449999999999999      49.079999999999998
    53   5                       0                       0      53.170000000000002
    54   5                       0      2.0449999999999999      55.215000000000003
    55   5      2.0449999999999999                       0      55.215000000000003
    56   5      2.0449999999999999      2.0449999999999999      53.170000000000002
    57   5                       0                       0      57.259999999999998
    58   5                       0      2.0449999999999999                  59.305
    59   5      2.0449999999999999                       0                  59.305
    60   5      2.0449999999999999      2.0449999999999999      57.259999999999998
    61   6                       0                       0      61.349999999999994
    62   6                       0      2.0449999999999999      63.394999999999996
    63   6      2.0449999999999999                       0      63.394999999999996
    64   6      2.0449999999999999      2.0449999999999999      61.349999999999994
    65   6                       0                       0      65.439999999999998
    66   6                       0      2.0449999999999999      67.484999999999999
    67   6      2.0449999999999999                       0      67.484999999999999
    68   6      2.0449999999999999      2.0449999999999999      65.439999999999998
    69   6                       0                       0      69.530000000000001
    70   6                       0      2.0449999999999999      71.575000000000003
    71   6      2.0449999999999999                       0      71.575000000000003
    72   6      2.0449999999999999      2.0449999999999999      69.530000000000001
    73   7                       0                       0      73.620000000000005
    74   7                       0      2.0449999999999999      75.665000000000006
    75   7      2.0449999999999999                       0      75.665000000000006
    76   7      2.0449999999999999      2.0449999999999999      73.620000000000005
    77   7                       0                       0      77.709999999999994
    78   7                       0      2.0449999999999999      79.754999999999995
    79   7      2.0449999999999999                       0      79.754999999999995
    80   7      2.0449999999999999      2.0449999999999999      77.709999999999994
    81   7                       0                       0      81.799999999999997
    82   7                       0      2.0449999999999999      83.844999999999999
    83   7      2.0449999999999999                       0      83.844999999999999
    84   7      2.0449999999999999      2.0449999999999999      81.799999999999997
    85   8                       0                       0      85.890000000000001
    86   8                       0      2.0449999999999999      87.935000000000002
    87   8      2.0449999999999999                       0      87.935000000000002
    88   8      2.0449999999999999      2.0449999999999999      85.890000000000001
    89   8                       0                       0       89.97999999999999
    90   8                       0      2.0449999999999999      92.024999999999991
    91   8      2.0449999999999999                       0      92.024999999999991
    92   8      2.0449999999999999      2.0449999999999999       89.97999999999999
    93   8                       0                       0      94.069999999999993
    94   8                       0      2.0449999999999999      96.114999999999995
    95   8      2.0449999999999999                       0      96.114999999999995
    96   8      2.0449999999999999      2.0449999999999999      94.069999999999993
    97   9                       0                       0      98.159999999999997
    98   9                       0      2.0449999999999999                 100.205
    99   9      2.0449999999999999                       0                 100.205
   100   9      2.0449999999999999      2.0449999999999999      98.159999999999997
   101   9                       0                       0                  102.25
   102   9                       0      2.0449999999999999                 104.295
   103   9      2.0449999999999999                       0                 104.295
   104   9      2.0449999999999999      2.0449999999999999                  102.25
   105   9                       0                       0                  106.34
   106   9                       0      2.0449999999999999      108.38500000000001
   107   9      2.0449999999999999                       0      108.38500000000001
   108   9      2.0449999999999999      2.0449999999999999                  106.34
   109  10                       0                       0      110.42999999999999
   110  10                       0      2.0449999999999999      112.47499999999999
   111  10      2.0449999999999999                       0      112.47499999999999
   112  10      2.0449999999999999      2.0449999999999999      110.42999999999999
   113  10                       0                       0                  114.52
   114  10                       0      2.0449999999999999                 116.565
   115  10      2.0449999999999999                       0                 116.565
   116  10      2.0449999999999999      2.0449999999999999                  114.52
   117  10                       0                       0                  118.61
   118  10                       0      2.0449999999999999                 120.655
   119  10      2.0449999999999999                       0                 120.655
   120  10      2.0449999999999999      2.0449999999999999                  118.61
   121   1                       0      4.0899999999999999                       0
   122   1                       0      6.1349999999999998      2.0449999999999999
   123   1      2.0449999999999999      4.0899999999999999      2.0449999999999999
   124   1      2.0449999999999999      6.1349999999999998                       0
   125   1                       0      4.0899999999999999      4.0899999999999999
   126   1                       0      6.1349999999999998      6.1349999999999998
   127   1      2.0449999999999999      4.0899999999999999      6.1349999999999998
   128   1      2.0449999999999999      6.1349999999999998      4.0899999999999999
   129   1                       0      4.0899999999999999      8.1799999999999997
   130   1                       0      6.1349999999999998                  10.225
   131   1      2.0449999999999999      4.0899999999999999                  10.225
   132   1      2.0449999999999999      6.1349999999999998      8.1799999999999997
   133   2                       0      4.0899999999999999                   12.27
   134   2                       0      6.1349999999999998                  14.315
   135   2      2.0449999999999999      4.0899999999999999                  14.315
   136   2      2.0449999999999999      6.1349999999999998                   12.27
   137   2                       0      4.0899999999999999      16.359999999999999
   138   2                       0      6.1349999999999998      18.405000000000001
   139   2      2.0449999999999999      4.0899999999999999      18.405000000000001
   140   2      2.0449999999999999      6.1349999999999998      16.359999999999999
   141   2                       0      4.0899999999999999      20.449999999999999
   142   2                       0      6.1349999999999998      22.494999999999997
   143   2      2.0449999999999999      4.0899999999999999      22.494999999999997
   144   2      2.0449999999999999      6.1349999999999998      20.449999999999999
   145   3                       0      4.0899999999999999      24.539999999999999
   146   3                       0      6.1349999999999998      26.585000000000001
   147   3      2.0449999999999999      4.0899999999999999      26.585000000000001
   148   3      2.0449999999999999      6.1349999999999998      24.539999999999999
   149   3                       0      4.0899999999999999      28.629999999999999
   150   3                       0      6.1349999999999998      30.674999999999997
   151   3      2.0449999999999999      4.0899999999999999      30.674999999999997
   152   3      2.0449999999999999      6.1349999999999998      28.629999999999999
   153   3                       0      4.0899999999999999      32.719999999999999
   154   3                       0      6.1349999999999998      34.765000000000001
   155   3      2.0449999999999999      4.0899999999999999      34.765000000000001
   156   3      2.0449999999999999      6.1349999999999998      32.719999999999999
   157   4                       0      4.0899999999999999      36.810000000000002
   158   4                       0      6.1349999999999998      38.855000000000004
   159   4      2.0449999999999999      4.0899999999999999      38.855000000000004
   160   4      2.0449999999999999      6.1349999999999998      36.810000000000002
   161   4                       0      4.0899999999999999      40.899999999999999
   162   4                       0      6.1349999999999998                  42.945
   163   4      2.0449999999999999      4.0899999999999999                  42.945
   164   4      2.0449999999999999      6.1349999999999998      40.899999999999999
   165   4                       0      4.0899999999999999      44.989999999999995
   166   4                       0      6.1349999999999998      47.034999999999997
   167   4      2.0449999999999999      4.0899999999999999      47.034999999999997
   168   4      2.0449999999999999      6.1349999999999998      44.989999999999995
   169   5                       0      4.0899999999999999      49.079999999999998
   170   5                       0      6.1349999999999998                  51.125
   171   5      2.0449999999999999      4.0899999999999999                  51.125
   172   5      2.0449999999999999      6.1349999999999998      49.079999999999998
   173   5                       0      4.0899999999999999      53.170000000000002
   174   5                       0      6.1349999999999998      55.215000000000003
   175   5      2.0449999999999999      4.0899999999999999      55.215000000000003
   176   5      2.0449999999999999      6.1349999999999998      53.170000000000002
   177   5                       0      4.0899999999999999      57.259999999999998
   178   5                       0      6.1349999999999998                  59.305
   179   5      2.0449999999999999      4.0899999999999999                  59.305
   180   5      2.0449999999999999      6.1349999999999998      57.259999999999998
   181   6                       0      4.0899999999999999      61.349999999999994
   182   6                       0      6.1349999999999998      63.394999999999996
   183   6      2.0449999999999999      4.0899999999999999      63.394999999999996
   184   6      2.0449999999999999      6.1349999999999998      61.349999999999994
   185   6                       0      4.0899999999999999      65.439999999999998
   186   6                       0      6.1349999999999998      67.484999999999999
   187   6      2.0449999999999999      4.0899999999999999      67.484999999999999
   188   6      2.0449999999999999      6.1349999999999998      65.439999999999998
   189   6                       0      4.0899999999999999      69.530000000000001
   190   6                       0      6.1349999999999998      71.575000000000003
   191   6      2.0449999999999999      4.0899999999999999      71.575000000000003
   192   6      2.0449999999999999      6.1349999999999998      69.530000000000001
   193   7                       0      4.0899999999999999      73.620000000000005
   194   7                       0      6.1349999999999998      75.665000000000006
   195   7      2.0449999999999999      4.0899999999999999      75.665000000000006
   196   7      2.0449999999999999      6.1349999999999998      73.620000000000005
   197   7                       0      4.0899999999999999      77.709999999999994
   198   7                       0      6.1349999999999998      79.754999999999995
   199   7      2.0449999999999999      4.0899999999999999      79.754999999999995
   200   7      2.0449999999999999      6.1349999999999998      77.709999999999994
   201   7                       0      4.0899999999999999      81.799999999999997
   202   7                       0      6.1349999999999998      83.844999999999999
   203   7      2.0449999999999999      4.0899999999999999      83.844999999999999
   204   7      2.0449999999999999      6.1349999999999998      81.799999999999997
   205   8                       0      4.0899999999999999      85.890000000000001
   206   8                       0      6.1349999999999998      87.935000000000002
   207   8      2.0449999999999999      4.0899999999999999      87.935000000000002
   208   8      2.0449999999999999      6.1349999999999998      85.890000000000001
   209   8                       0      4.0899999999999999       89.97999999999999
   210   8                       0      6.1349999999999998      92.024999999999991
   211   8      2.0449999999999999      4.0899999999999999      92.024999999999991
   212   8      2.0449999999999999      6.1349999999999998       89.97999999999999
   213   8                       0      4.0899999999999999      94.069999999999993
   214   8                       0      6.1349999999999998      96.114999999999995
   215   8      2.0449999999999999      4.0899999999999999      96.114999999999995
   216   8      2.0449999999999999      6.1349999999999998      94.069999999999993
   217   9                       0      4.0899999999999999      98.159999999999997
   218   9                       0      6.1349999999999998                 100.205
   219   9      2.0449999999999999      4.0899999999999999                 100.205
   220   9      2.0449999999999999      6.1349999999999998      98.159999999999997
   221   9                       0      4.0899999999999999                  102.25
   222   9                       0      6.1349999999999998                 104.295
   223   9      2.0449999999999999      4.0899999999999999                 104.295
   224   9      2.0449999999999999      6.1349999999999998                  102.25
   225   9                       0      4.0899999999999999                  106.34
   226   9                       0      6.1349999999999998      108.38500000000001
   227   9      2.0449999999999999      4.0899999999999999      108.38500000000001
   228   9      2.0449999999999999      6.1349999999999998                  106.34
   229  10                       0      4.0899999999999999      110.42999999999999
   230  10                       0      6.1349999999999998      112.47499999999999
   231  10      2.0449999999999999      4.0899999999999999      112.47499999999999
   232  10      2.0449999999999999      6.1349999999999998      110.42999999999999
   233  10                       0      4.0899999999999999                  114.52
   234  10                       0      6.1349999999999998                 116.565
   235  10      2.0449999999999999      4.0899999999999999                 116.565
   236  10      2.0449999999999999      6.1349999999999998                  114.52
   237  10                       0      4.0899999999999999                  118.61
   238  10                       0      6.1349999999999998                 120.655
   239  10      2.0449999999999999      4.0899999999999999                 120.655
   240  10      2.0449999999999999      6.1349999999999998                  118.61
   241   1      4.0899999999999999                       0                       0
   242   1      4.0899999999999999      2.0449999999999999      2.0449999999999999
   243   1      6.1349999999999998                       0      2.0449999999999999
   244   1      6.1349999999999998      2.0449999999999999                       0
   245   1      4.0899999999999999                       0      4.0899999999999999
   246   1      4.0899999999999999      2.0449999999999999      6.1349999999999998
   247   1      6.1349999999999998                       0      6.1349999999999998
   248   1      6.1349999999999998      2.0449999999999999      4.0899999999999999
   249   1      4.0899999999999999                       0      8.1799999999999997
   250   1      4.0899999999999999      2.0449999999999999                  10.225
   251   1      6.1349999999999998                       0                  10.225
   252   1      6.1349999999999998      2.0449999999999999      8.1799999999999997
   253   2      4.0899999999999999                       0                   12.27
   254   2      4.0899999999999999      2.0449999999999999                  14.315
   255   2      6.1349999999999998                       0                  14.315
   256   2      6.1349999999999998      2.0449999999999999                   12.27
   257   2      4.0899999999999999                       0      16.359999999999999
   258   2      4.0899999999999999      2.0449999999999999      18.405000000000001
   259   2      6.1349999999999998                       0      18.405000000000001
   260   2      6.1349999999999998      2.0449999999999999      16.359999999999999
   261   2      4.0899999999999999                       0      20.449999999999999
   262   2      4.0899999999999999      2.0449999999999999      22.494999999999997
   263   2      6.1349999999999998                       0      22.494999999999997
   264   2      6.1349999999999998      2.0449999999999999      20.449999999999999
   265   3      4.0899999999999999                       0      24.539999999999999
   266   3      4.0899999999999999      2.0449999999999999      26.585000000000001
   267   3      6.1349999999999998                       0      26.585000000000001
   268   3      6.1349999999999998      2.0449999999999999      24.539999999999999
   269   3      4.0899999999999999                       0      28.629999999999999
   270   3      4.0899999999999999      2.0449999999999999      30.674999999999997
   271   3      6.1349999999999998                       0      30.674999999999997
   272   3      6.1349999999999998      2.0449999999999999      28.629999999999999
   273   3      4.0899999999999999                       0      32.719999999999999
   274   3      4.0899999999999999      2.0449999999999999      34.765000000000001
   275   3      6.1349999999999998                       0      34.765000000000001
   276   3      6.1349999999999998      2.0449999999999999      32.719999999999999
   277   4      4.0899999999999999                       0      36.810000000000002
   278   4      4.0899999999999999      2.0449999999999999      38.855000000000004
   279   4      6.1349999999999998                       0      38.855000000000004
   280   4      6.1349999999999998      2.0449999999999999      36.810000000000002
   281   4      4.0899999999999999                       0      40.899999999999999
   282   4      4.0899999999999999      2.0449999999999999                  42.945
   283   4      6.1349999999999998                       0                  42.945
   284   4      6.1349999999999998      2.0449999999999999      40.899999999999999
   285   4      4.0899999999999999                       0      44.989999999999995
   286   4      4.0899999999999999      2.0449999999999999      47.034999999999997
   287   4      6.1349999999999998                       0      47.034999999999997
   288   4      6.1349999999999998      2.0449999999999999      44.989999999999995
   289   5      4.0899999999999999                       0      49.079999999999998
   290   5      4.0899999999999999      2.0449999999999999                  51.125
   291   5      6.1349999999999998                       0                  51.125
   292   5      6.1349999999999998      2.0449999999999999      49.079999999999998
   293   5      4.0899999999999999                       0      53.170000000000002
   294   5      4.0899999999999999      2.0449999999999999      55.215000000000003
   295   5      6.1349999999999998                       0      55.215000000000003
   296   5      6.1349999999999998      2.0449999999999999      53.170000000000002
   297   5      4.0899999999999999                       0      57.259999999999998
   298   5      4.0899999999999999      2.0449999999999999                  59.305
   299   5      6.1349999999999998                       0                  59.305
   300   5      6.1349999999999998      2.0449999999999999      57.259999999999998
   301   6      4.0899999999999999                       0      61.349999999999994
   302   6      4.0899999999999999      2.0449999999999999      63.394999999999996
   303   6      6.1349999999999998                       0      63.394999999999996
   304   6      6.1349999999999998      2.0449999999999999      61.349999999999994
   305   6      4.0899999999999999                       0      65.439999999999998
   306   6      4.0899999999999999      2.0449999999999999      67.484999999999999
   307   6      6.1349999999999998                       0      67.484999999999999
   308   6      6.1349999999999998      2.0449999999999999      65.439999999999998
   309   6      4.0899999999999999                       0      69.530000000000001
   310   6      4.0899999999999999      2.0449999999999999      71.575000000000003
   311   6      6.1349999999999998                       0      71.575000000000003
   312   6      6.1349999999999998      2.0449999999999999      69.530000000000001
   313   7      4.0899999999999999                       0      73.620000000000005
   314   7      4.0899999999999999      2.0449999999999999      75.665000000000006
   315   7      6.1349999999999998                       0      75.665000000000006
   316   7      6.1349999999999998      2.0449999999999999      73.620000000000005
   317   7      4.0899999999999999                       0      77.709999999999994
   318   7      4.0899999999999999      2.0449999999999999      79.754999999999995
   319   7      6.1349999999999998                       0      79.754999999999995
   320   7      6.1349999999999998      2.0449999999999999      77.709999999999994
   321   7      4.0899999999999999                       0      81.799999999999997
   322   7      4.0899999999999999      2.0449999999999999      83.844999999999999
   323   7      6.1349999999999998                       0      83.844999999999999
   324   7      6.1349999999999998      2.0449999999999999      81.799999999999997
   325   8      4.0899999999999999                       0      85.890000000000001
   326   8      4.0899999999999999      2.0449999999999999      87.935000000000002
   327   8      6.1349999999999998                       0      87.935000000000002
   328   8      6.1349999999999998      2.0449999999999999      85.890000000000001
   329   8      4.0899999999999999                       0       89.97999999999999
   330   8      4.0899999999999999      2.0449999999999999      92.024999999999991
   331   8      6.1349999999999998                       0      92.024999999999991
   332   8      6.1349999999999998      2.0449999999999999       89.97999999999999
   333   8      4.0899999999999999                       0      94.069999999999993
   334   8      4.0899999999999999      2.0449999999999999      96.114999999999995
   335   8      6.1349999999999998                       0      96.114999999999995
   336   8      6.1349999999999998      2.0449999999999999      94.069999999999993
   337   9      4.0899999999999999                       0      98.159999999999997
   338   9      4.0899999999999999      2.0449999999999999                 100.205
   339   9      6.1349999999999998                       0                 100.205
   340   9      6.1349999999999998      2.0449999999999999      98.159999999999997
   341   9      4.0899999999999999                       0                  102.25
   342   9      4.0899999999999999      2.0449999999999999                 104.295
   343   9      6.1349999999999998                       0                 104.295
   344   9      6.1349999999999998      2.0449999999999999                  102.25
   345   9      4.0899999999999999                       0                  106.34
   346   9      4.0899999999999999      2.0449999999999999      108.38500000000001
   347   9      6.1349999999999998                       0      108.38500000000001
   348   9      6.1349999999999998      2.0449999999999999                  106.34
   349  10      4.0899999999999999                       0      110.42999999999999
   350  10      4.0899999999999999      2.0449999999999999      112.47499999999999
   351  10      6.1349999999999998                       0      112.47499999999999
   352  10      6.1349999999999998      2.0449999999999999      110.42999999999999
   353  10      4.0899999999999999                       0                  114.52
   354  10      4.0899999999999999      2.0449999999999999                 116.565
   355  10      6.1349999999999998                       0                 116.565
   356  10      6.1349999999999998      2.0449999999999999                  114.52
   357  10      4.0899999999999999                       0                  118.61
   358  10      4.0899999999999999      2.0449999999999999                 120.655
   359  10      6.1349999999999998                       0                 120.655