ITEM: TIMESTEP
0
ITEM: NUMBER OF ATOMS
480
ITEM: BOX BOUNDS pp pp pp
0.0000000000000000e+00 8.1799999999999997e+00
0.0000000000000000e+00 8.1799999999999997e+00
-1.0000000000000000e+01 1.4269999999999999e+02
ITEM: ATOMS id type xu yu zu f_grace_gamma
1 1 0 0 0 0.535771
2 1 0 2.045 2.045 0.53892
3 1 2.045 0 2.045 0.53892
4 1 2.045 2.045 0 0.535771
5 1 0 0 4.09 0.502783
8 1 2.045 2.045 4.09 0.502783
241 1 4.09 0 0 0.535771
242 1 4.09 2.045 2.045 0.53892
243 1 6.135 0 2.045 0.53892
244 1 6.135 2.045 0 0.535771
245 1 4.09 0 4.09 0.502783
248 1 6.135 2.045 4.09 0.502783
121 1 0 4.09 0 0.535771
122 1 0 6.135 2.045 0.53892
123 1 2.045 4.09 2.045 0.53892
124 1 2.045 6.135 0 0.535771
125 1 0 4.09 4.09 0.502783
128 1 2.045 6.135 4.09 0.502783
361 1 4.09 4.09 0 0.535771
362 1 4.09 6.135 2.045 0.53892
363 1 6.135 4.09 2.045 0.53892
364 1 6.135 6.135 0 0.535771
365 1 4.09 4.09 4.09 0.502783
368 1 6.135 6.135 4.09 0.502783
6 1 0 2.045 6.135 0.502783
7 1 2.045 0 6.135 0.502783
9 1 0 0 8.18 0.520503
12 1 2.045 2.045 8.18 0.520503
246 1 4.09 2.045 6.135 0.502783
247 1 6.135 0 6.135 0.502783
249 1 4.09 0 8.18 0.520503
252 1 6.135 2.045 8.18 0.520503
126 1 0 6.135 6.135 0.502783
127 1 2.045 4.09 6.135 0.502783
129 1 0 4.09 8.18 0.520503
132 1 2.045 6.135 8.18 0.520503
366 1 4.09 6.135 6.135 0.502783
367 1 6.135 4.09 6.135 0.502783
369 1 4.09 4.09 8.18 0.520503
372 1 6.135 6.135 8.18 0.520503
10 1 0 2.045 10.225 0.501008
11 1 2.045 0 10.225 0.501008
13 2 0 0 12.27 0.522423
16 2 2.045 2.045 12.27 0.522423
250 1 4.09 2.045 10.225 0.501008
251 1 6.135 0 10.225 0.501008
253 2 4.09 0 12.27 0.522423
256 2 6.135 2.045 12.27 0.522423
130 1 0 6.135 10.225 0.501008
131 1 2.045 4.09 10.225 0.501008
133 2 0 4.09 12.27 0.522423
136 2 2.045 6.135 12.27 0.522423
370 1 4.09 6.135 10.225 0.501008
371 1 6.135 4.09 10.225 0.501008
373 2 4.09 4.09 12.27 0.522423
376 2 6.135 6.135 12.27 0.522423
14 2 0 2.045 14.315 0.660522
15 2 2.045 0 14.315 0.660522
17 2 0 0 16.36 0.687664
18 2 0 2.045 18.405 0.687664
19 2 2.045 0 18.405 0.687664
20 2 2.045 2.045 16.36 0.687664
254 2 4.09 2.045 14.315 0.660522
255 2 6.135 0 14.315 0.660522
257 2 4.09 0 16.36 0.687664
258 2 4.09 2.045 18.405 0.687664
259 2 6.135 0 18.405 0.687664
260 2 6.135 2.045 16.36 0.687664
134 2 0 6.135 14.315 0.660522
135 2 2.045 4.09 14.315 0.660522
137 2 0 4.09 16.36 0.687664
138 2 0 6.135 18.405 0.687664
139 2 2.045 4.09 18.405 0.687664
140 2 2.045 6.135 16.36 0.687664
374 2 4.09 6.135 14.315 0.660522
375 2 6.135 4.09 14.315 0.660522
377 2 4.09 4.09 16.36 0.687664
378 2 4.09 6.135 18.405 0.687664
379 2 6.135 4.09 18.405 0.687664
380 2 6.135 6.135 16.36 0.687664
21 2 0 0 20.45 0.676863
22 2 0 2.045 22.495 0.452764
23 2 2.045 0 22.495 0.452764
24 2 2.045 2.045 20.45 0.676863
261 2 4.09 0 20.45 0.676863
262 2 4.09 2.045 22.495 0.452764
263 2 6.135 0 22.495 0.452764
264 2 6.135 2.045 20.45 0.676863
141 2 0 4.09 20.45 0.676863
142 2 0 6.135 22.495 0.452764
143 2 2.045 4.09 22.495 0.452764
144 2 2.045 6.135 20.45 0.676863
381 2 4.09 4.09 20.45 0.676863
382 2 4.09 6.135 22.495 0.452764
383 2 6.135 4.09 22.495 0.452764
384 2 6.135 6.135 20.45 0.676863
25 3 0 0 24.54 0.632637
26 3 0 2.045 26.585 0.621767
27 3 2.045 0 26.585 0.621767
28 3 2.045 2.045 24.54 0.632637
265 3 4.09 0 24.54 0.632637
266 3 4.09 2.045 26.585 0.621767
267 3 6.135 0 26.585 0.621767
268 3 6.135 2.045 24.54 0.632637
145 3 0 4.09 24.54 0.632637
146 3 0 6.135 26.585 0.621767
147 3 2.045 4.09 26.585 0.621767
148 3 2.045 6.135 24.54 0.632637
385 3 4.09 4.09 24.54 0.632637
386 3 4.09 6.135 26.585 0.621767
387 3 6.135 4.09 26.585 0.621767
388 3 6.135 6.135 24.54 0.632637
29 3 0 0 28.63 0.606075
30 3 0 2.045 30.675 0.606075
31 3 2.045 0 30.675 0.606075
32 3 2.045 2.045 28.63 0.606075
33 3 0 0 32.72 0.637465
36 3 2.045 2.045 32.72 0.637465
269 3 4.09 0 28.63 0.606075
270 3 4.09 2.045 30.675 0.606075
271 3 6.135 0 30.675 0.606075
272 3 6.135 2.045 28.63 0.606075
273 3 4.09 0 32.72 0.637465
276 3 6.135 2.045 32.72 0.637465
149 3 0 4.09 28.63 0.606075
150 3 0 6.135 30.675 0.606075
151 3 2.045 4.09 30.675 0.606075
152 3 2.045 6.135 28.63 0.606075
153 3 0 4.09 32.72 0.637465
156 3 2.045 6.135 32.72 0.637465
389 3 4.09 4.09 28.63 0.606075
390 3 4.09 6.135 30.675 0.606075
391 3 6.135 4.09 30.675 0.606075
392 3 6.135 6.135 28.63 0.606075
393 3 4.09 4.09 32.72 0.637465
396 3 6.135 6.135 32.72 0.637465
34 3 0 2.045 34.765 0.668733
35 3 2.045 0 34.765 0.668733
37 4 0 0 36.81 0.484521
40 4 2.045 2.045 36.81 0.484521
274 3 4.09 2.045 34.765 0.668733
275 3 6.135 0 34.765 0.668733
277 4 4.09 0 36.81 0.484521
280 4 6.135 2.045 36.81 0.484521
154 3 0 6.135 34.765 0.668733
155 3 2.045 4.09 34.765 0.668733
157 4 0 4.09 36.81 0.484521
160 4 2.045 6.135 36.81 0.484521
394 3 4.09 6.135 34.765 0.668733
395 3 6.135 4.09 34.765 0.668733
397 4 4.09 4.09 36.81 0.484521
400 4 6.135 6.135 36.81 0.484521
38 4 0 2.045 38.855 0.807455
39 4 2.045 0 38.855 0.807455
41 4 0 0 40.9 0.825372
44 4 2.045 2.045 40.9 0.825372
278 4 4.09 2.045 38.855 0.807455
279 4 6.135 0 38.855 0.807455
281 4 4.09 0 40.9 0.825372
284 4 6.135 2.045 40.9 0.825372
158 4 0 6.135 38.855 0.807455
159 4 2.045 4.09 38.855 0.807455
161 4 0 4.09 40.9 0.825372
164 4 2.045 6.135 40.9 0.825372
398 4 4.09 6.135 38.855 0.807455
399 4 6.135 4.09 38.855 0.807455
401 4 4.09 4.09 40.9 0.825372
404 4 6.135 6.135 40.9 0.825372
42 4 0 2.045 42.945 0.825372
43 4 2.045 0 42.945 0.825372
45 4 0 0 44.99 0.806481
46 4 0 2.045 47.035 0.532997
47 4 2.045 0 47.035 0.532997
48 4 2.045 2.045 44.99 0.806481
282 4 4.09 2.045 42.945 0.825372
283 4 6.135 0 42.945 0.825372
285 4 4.09 0 44.99 0.806481
286 4 4.09 2.045 47.035 0.532997
287 4 6.135 0 47.035 0.532997
288 4 6.135 2.045 44.99 0.806481
162 4 0 6.135 42.945 0.825372
163 4 2.045 4.09 42.945 0.825372
165 4 0 4.09 44.99 0.806481
166 4 0 6.135 47.035 0.532997
167 4 2.045 4.09 47.035 0.532997
168 4 2.045 6.135 44.99 0.806481
402 4 4.09 6.135 42.945 0.825372
403 4 6.135 4.09 42.945 0.825372
405 4 4.09 4.09 44.99 0.806481
406 4 4.09 6.135 47.035 0.532997
407 4 6.135 4.09 47.035 0.532997
408 4 6.135 6.135 44.99 0.806481
49 5 0 0 49.08 0.496454
50 5 0 2.045 51.125 0.422357
51 5 2.045 0 51.125 0.422357
52 5 2.045 2.045 49.08 0.496454
289 5 4.09 0 49.08 0.496454
290 5 4.09 2.045 51.125 0.422357
291 5 6.135 0 51.125 0.422357
292 5 6.135 2.045 49.08 0.496454
169 5 0 4.09 49.08 0.496454
170 5 0 6.135 51.125 0.422357
171 5 2.045 4.09 51.125 0.422357
172 5 2.045 6.135 49.08 0.496454
409 5 4.09 4.09 49.08 0.496454
410 5 4.09 6.135 51.125 0.422357
411 5 6.135 4.09 51.125 0.422357
412 5 6.135 6.135 49.08 0.496454
53 5 0 0 53.17 0.423608
54 5 0 2.045 55.215 0.423608
55 5 2.045 0 55.215 0.423608
56 5 2.045 2.045 53.17 0.423608
293 5 4.09 0 53.17 0.423608
294 5 4.09 2.045 55.215 0.423608
295 5 6.135 0 55.215 0.423608
296 5 6.135 2.045 53.17 0.423608
173 5 0 4.09 53.17 0.423608
174 5 0 6.135 55.215 0.423608
175 5 2.045 4.09 55.215 0.423608
176 5 2.045 6.135 53.17 0.423608
413 5 4.09 4.09 53.17 0.423608
414 5 4.09 6.135 55.215 0.423608
415 5 6.135 4.09 55.215 0.423608
416 5 6.135 6.135 53.17 0.423608
57 5 0 0 57.26 0.42116
58 5 0 2.045 59.305 0.379166
59 5 2.045 0 59.305 0.379166
60 5 2.045 2.045 57.26 0.42116
61 6 0 0 61.35 0.522842
64 6 2.045 2.045 61.35 0.522842
297 5 4.09 0 57.26 0.42116
298 5 4.09 2.045 59.305 0.379166
299 5 6.135 0 59.305 0.379166
300 5 6.135 2.045 57.26 0.42116
301 6 4.09 0 61.35 0.522842
304 6 6.135 2.045 61.35 0.522842
177 5 0 4.09 57.26 0.42116
178 5 0 6.135 59.305 0.379166
179 5 2.045 4.09 59.305 0.379166
180 5 2.045 6.135 57.26 0.42116
181 6 0 4.09 61.35 0.522842
184 6 2.045 6.135 61.35 0.522842
417 5 4.09 4.09 57.26 0.42116
418 5 4.09 6.135 59.305 0.379166
419 5 6.135 4.09 59.305 0.379166
420 5 6.135 6.135 57.26 0.42116
421 6 4.09 4.09 61.35 0.522842
424 6 6.135 6.135 61.35 0.522842
62 6 0 2.045 63.395 0.636835
63 6 2.045 0 63.395 0.636835
65 6 0 0 65.44 0.634019
68 6 2.045 2.045 65.44 0.634019
302 6 4.09 2.045 63.395 0.636835
303 6 6.135 0 63.395 0.636835
305 6 4.09 0 65.44 0.634019
308 6 6.135 2.045 65.44 0.634019
182 6 0 6.135 63.395 0.636835
183 6 2.045 4.09 63.395 0.636835
185 6 0 4.09 65.44 0.634019
188 6 2.045 6.135 65.44 0.634019
422 6 4.09 6.135 63.395 0.636835
423 6 6.135 4.09 63.395 0.636835
425 6 4.09 4.09 65.44 0.634019
428 6 6.135 6.135 65.44 0.634019
66 6 0 2.045 67.485 0.634019
67 6 2.045 0 67.485 0.634019
69 6 0 0 69.53 0.645157
72 6 2.045 2.045 69.53 0.645157
306 6 4.09 2.045 67.485 0.634019
307 6 6.135 0 67.485 0.634019
309 6 4.09 0 69.53 0.645157
312 6 6.135 2.045 69.53 0.645157
186 6 0 6.135 67.485 0.634019
187 6 2.045 4.09 67.485 0.634019
189 6 0 4.09 69.53 0.645157
192 6 2.045 6.135 69.53 0.645157
426 6 4.09 6.135 67.485 0.634019
427 6 6.135 4.09 67.485 0.634019
429 6 4.09 4.09 69.53 0.645157
432 6 6.135 6.135 69.53 0.645157
70 6 0 2.045 71.575 0.775011
71 6 2.045 0 71.575 0.775011
73 7 0 0 73.62 0.417934
74 7 0 2.045 75.665 0.446944
75 7 2.045 0 75.665 0.446944
76 7 2.045 2.045 73.62 0.417934
310 6 4.09 2.045 71.575 0.775011
311 6 6.135 0 71.575 0.775011
313 7 4.09 0 73.62 0.417934
314 7 4.09 2.045 75.665 0.446944
315 7 6.135 0 75.665 0.446944
316 7 6.135 2.045 73.62 0.417934
190 6 0 6.135 71.575 0.775011
191 6 2.045 4.09 71.575 0.775011
193 7 0 4.09 73.62 0.417934
194 7 0 6.135 75.665 0.446944
195 7 2.045 4.09 75.665 0.446944
196 7 2.045 6.135 73.62 0.417934
430 6 4.09 6.135 71.575 0.775011
431 6 6.135 4.09 71.575 0.775011
433 7 4.09 4.09 73.62 0.417934
434 7 4.09 6.135 75.665 0.446944
435 7 6.135 4.09 75.665 0.446944
436 7 6.135 6.135 73.62 0.417934
77 7 0 0 77.71 0.461915
78 7 0 2.045 79.755 0.461915
79 7 2.045 0 79.755 0.461915
80 7 2.045 2.045 77.71 0.461915
317 7 4.09 0 77.71 0.461915
318 7 4.09 2.045 79.755 0.461915
319 7 6.135 0 79.755 0.461915
320 7 6.135 2.045 77.71 0.461915
197 7 0 4.09 77.71 0.461915
198 7 0 6.135 79.755 0.461915
199 7 2.045 4.09 79.755 0.461915
200 7 2.045 6.135 77.71 0.461915
437 7 4.09 4.09 77.71 0.461915
438 7 4.09 6.135 79.755 0.461915
439 7 6.135 4.09 79.755 0.461915
440 7 6.135 6.135 77.71 0.461915
81 7 0 0 81.8 0.452994
82 7 0 2.045 83.845 0.545975
83 7 2.045 0 83.845 0.545975
84 7 2.045 2.045 81.8 0.452994
321 7 4.09 0 81.8 0.452994
322 7 4.09 2.045 83.845 0.545975
323 7 6.135 0 83.845 0.545975
324 7 6.135 2.045 81.8 0.452994
201 7 0 4.09 81.8 0.452994
202 7 0 6.135 83.845 0.545975
203 7 2.045 4.09 83.845 0.545975
204 7 2.045 6.135 81.8 0.452994
441 7 4.09 4.09 81.8 0.452994
442 7 4.09 6.135 83.845 0.545975
443 7 6.135 4.09 83.845 0.545975
444 7 6.135 6.135 81.8 0.452994
85 8 0 0 85.89 0.526178
86 8 0 2.045 87.935 0.547766
87 8 2.045 0 87.935 0.547766
88 8 2.045 2.045 85.89 0.526178
89 8 0 0 89.98 0.538425
92 8 2.045 2.045 89.98 0.538425
325 8 4.09 0 85.89 0.526178
326 8 4.09 2.045 87.935 0.547766
327 8 6.135 0 87.935 0.547766
328 8 6.135 2.045 85.89 0.526178
329 8 4.09 0 89.98 0.538425
332 8 6.135 2.045 89.98 0.538425
205 8 0 4.09 85.89 0.526178
206 8 0 6.135 87.935 0.547766
207 8 2.045 4.09 87.935 0.547766
208 8 2.045 6.135 85.89 0.526178
209 8 0 4.09 89.98 0.538425
212 8 2.045 6.135 89.98 0.538425
445 8 4.09 4.09 85.89 0.526178
446 8 4.09 6.135 87.935 0.547766
447 8 6.135 4.09 87.935 0.547766
448 8 6.135 6.135 85.89 0.526178
449 8 4.09 4.09 89.98 0.538425
452 8 6.135 6.135 89.98 0.538425
90 8 0 2.045 92.025 0.538425
91 8 2.045 0 92.025 0.538425
93 8 0 0 94.07 0.540151
96 8 2.045 2.045 94.07 0.540151
330 8 4.09 2.045 92.025 0.538425
331 8 6.135 0 92.025 0.538425
333 8 4.09 0 94.07 0.540151
336 8 6.135 2.045 94.07 0.540151
210 8 0 6.135 92.025 0.538425
211 8 2.045 4.09 92.025 0.538425
213 8 0 4.09 94.07 0.540151
216 8 2.045 6.135 94.07 0.540151
450 8 4.09 6.135 92.025 0.538425
451 8 6.135 4.09 92.025 0.538425
453 8 4.09 4.09 94.07 0.540151
456 8 6.135 6.135 94.07 0.540151
94 8 0 2.045 96.115 0.667949
95 8 2.045 0 96.115 0.667949
97 9 0 0 98.16 0.742036
100 9 2.045 2.045 98.16 0.742036
334 8 4.09 2.045 96.115 0.667949
335 8 6.135 0 96.115 0.667949
337 9 4.09 0 98.16 0.742036
340 9 6.135 2.045 98.16 0.742036
214 8 0 6.135 96.115 0.667949
215 8 2.045 4.09 96.115 0.667949
217 9 0 4.09 98.16 0.742036
220 9 2.045 6.135 98.16 0.742036
454 8 4.09 6.135 96.115 0.667949
455 8 6.135 4.09 96.115 0.667949
457 9 4.09 4.09 98.16 0.742036
460 9 6.135 6.135 98.16 0.742036
98 9 0 2.045 100.205 0.774137
99 9 2.045 0 100.205 0.774137
101 9 0 0 102.25 0.777091
102 9 0 2.045 104.295 0.777091
103 9 2.045 0 104.295 0.777091
104 9 2.045 2.045 102.25 0.777091
338 9 4.09 2.045 100.205 0.774137
339 9 6.135 0 100.205 0.774137
341 9 4.09 0 102.25 0.777091
342 9 4.09 2.045 104.295 0.777091
343 9 6.135 0 104.295 0.777091
344 9 6.135 2.045 102.25 0.777091
218 9 0 6.135 100.205 0.774137
219 9 2.045 4.09 100.205 0.774137
221 9 0 4.09 102.25 0.777091
222 9 0 6.135 104.295 0.777091
223 9 2.045 4.09 104.295 0.777091
224 9 2.045 6.135 102.25 0.777091
458 9 4.09 6.135 100.205 0.774137
459 9 6.135 4.09 100.205 0.774137
461 9 4.09 4.09 102.25 0.777091
462 9 4.09 6.135 104.295 0.777091
463 9 6.135 4.09 104.295 0.777091
464 9 6.135 6.135 102.25 0.777091
105 9 0 0 106.34 0.689863
106 9 0 2.045 108.385 0.537085
107 9 2.045 0 108.385 0.537085
108 9 2.045 2.045 106.34 0.689863
345 9 4.09 0 106.34 0.689863
346 9 4.09 2.045 108.385 0.537085
347 9 6.135 0 108.385 0.537085
348 9 6.135 2.045 106.34 0.689863
225 9 0 4.09 106.34 0.689863
226 9 0 6.135 108.385 0.537085
227 9 2.045 4.09 108.385 0.537085
228 9 2.045 6.135 106.34 0.689863
465 9 4.09 4.09 106.34 0.689863
466 9 4.09 6.135 108.385 0.537085
467 9 6.135 4.09 108.385 0.537085
468 9 6.135 6.135 106.34 0.689863
109 10 0 0 110.43 0.501256
110 10 0 2.045 112.475 0.716174
111 10 2.045 0 112.475 0.716174
112 10 2.045 2.045 110.43 0.501256
349 10 4.09 0 110.43 0.501256
350 10 4.09 2.045 112.475 0.716174
351 10 6.135 0 112.475 0.716174
352 10 6.135 2.045 110.43 0.501256
229 10 0 4.09 110.43 0.501256
230 10 0 6.135 112.475 0.716174
231 10 2.045 4.09 112.475 0.716174
232 10 2.045 6.135 110.43 0.501256
469 10 4.09 4.09 110.43 0.501256
470 10 4.09 6.135 112.475 0.716174
471 10 6.135 4.09 112.475 0.716174
472 10 6.135 6.135 110.43 0.501256
113 10 0 0 114.52 0.730186
114 10 0 2.045 116.565 0.730186
115 10 2.045 0 116.565 0.730186
116 10 2.045 2.045 114.52 0.730186
117 10 0 0 118.61 0.721524
120 10 2.045 2.045 118.61 0.721524
353 10 4.09 0 114.52 0.730186
354 10 4.09 2.045 116.565 0.730186
355 10 6.135 0 116.565 0.730186
356 10 6.135 2.045 114.52 0.730186
357 10 4.09 0 118.61 0.721524
360 10 6.135 2.045 118.61 0.721524
233 10 0 4.09 114.52 0.730186
234 10 0 6.135 116.565 0.730186
235 10 2.045 4.09 116.565 0.730186
236 10 2.045 6.135 114.52 0.730186
237 10 0 4.09 118.61 0.721524
240 10 2.045 6.135 118.61 0.721524
473 10 4.09 4.09 114.52 0.730186
474 10 4.09 6.135 116.565 0.730186
475 10 6.135 4.09 116.565 0.730186
476 10 6.135 6.135 114.52 0.730186
477 10 4.09 4.09 118.61 0.721524
480 10 6.135 6.135 118.61 0.721524
118 10 0 2.045 120.655 0.962834
119 10 2.045 0 120.655 0.962834
358 10 4.09 2.045 120.655 0.962834
359 10 6.135 0 120.655 0.962834
238 10 0 6.135 120.655 0.962834
239 10 2.045 4.09 120.655 0.962834
478 10 4.09 6.135 120.655 0.962834
479 10 6.135 4.09 120.655 0.962834
ITEM: TIMESTEP
50
ITEM: NUMBER OF ATOMS
480
ITEM: BOX BOUNDS pp pp pp
2.0004613675657029e-01 7.9799538632434288e+00
2.0004613675656596e-01 7.9799538632434359e+00
-5.1191953200555771e+00 1.3781919532005568e+02
ITEM: ATOMS id type xu yu zu f_grace_gamma
1 1 0.200046 0.200046 4.07794 0.494739
2 1 0.200046 2.14502 6.08316 0.596275
3 1 2.14502 0.200046 6.08316 0.596275
4 1 2.14502 2.14502 4.07794 0.494739
5 1 0.200046 0.200046 8.05469 0.526087
8 1 2.14502 2.14502 8.05469 0.526087
241 1 4.09 0.200046 4.07794 0.494739
242 1 4.09 2.14502 6.08316 0.596275
243 1 6.03498 0.200046 6.08316 0.596275
244 1 6.03498 2.14502 4.07794 0.494739
245 1 4.09 0.200046 8.05469 0.526087
248 1 6.03498 2.14502 8.05469 0.526087
121 1 0.200046 4.09 4.07794 0.494739
122 1 0.200046 6.03498 6.08316 0.596275
123 1 2.14502 4.09 6.08316 0.596275
124 1 2.14502 6.03498 4.07794 0.494739
125 1 0.200046 4.09 8.05469 0.526087
128 1 2.14502 6.03498 8.05469 0.526087
361 1 4.09 4.09 4.07794 0.494739
362 1 4.09 6.03498 6.08316 0.596275
363 1 6.03498 4.09 6.08316 0.596275
364 1 6.03498 6.03498 4.07794 0.494739
365 1 4.09 4.09 8.05469 0.526087
368 1 6.03498 6.03498 8.05469 0.526087
6 1 0.200046 2.14502 9.98042 0.515489
7 1 2.14502 0.200046 9.98042 0.515489
9 1 0.200046 0.200046 11.8714 0.533457
12 1 2.14502 2.14502 11.8714 0.533457
246 1 4.09 2.14502 9.98042 0.515489
247 1 6.03498 0.200046 9.98042 0.515489
249 1 4.09 0.200046 11.8714 0.533457
252 1 6.03498 2.14502 11.8714 0.533457
126 1 0.200046 6.03498 9.98042 0.515489
127 1 2.14502 4.09 9.98042 0.515489
129 1 0.200046 4.09 11.8714 0.533457
132 1 2.14502 6.03498 11.8714 0.533457
366 1 4.09 6.03498 9.98042 0.515489
367 1 6.03498 4.09 9.98042 0.515489
369 1 4.09 4.09 11.8714 0.533457
372 1 6.03498 6.03498 11.8714 0.533457
10 1 0.200046 2.14502 13.748 0.506091
11 1 2.14502 0.200046 13.748 0.506091
13 2 0.200046 0.200046 15.673 0.564576
16 2 2.14502 2.14502 15.673 0.564576
250 1 4.09 2.14502 13.748 0.506091
251 1 6.03498 0.200046 13.748 0.506091
253 2 4.09 0.200046 15.673 0.564576
256 2 6.03498 2.14502 15.673 0.564576
130 1 0.200046 6.03498 13.748 0.506091
131 1 2.14502 4.09 13.748 0.506091
133 2 0.200046 4.09 15.673 0.564576
136 2 2.14502 6.03498 15.673 0.564576
370 1 4.09 6.03498 13.748 0.506091
371 1 6.03498 4.09 13.748 0.506091
373 2 4.09 4.09 15.673 0.564576
376 2 6.03498 6.03498 15.673 0.564576
14 2 0.200046 2.14502 17.5958 0.74961
15 2 2.14502 0.200046 17.5958 0.74961
17 2 0.200046 0.200046 19.5529 0.747742
18 2 0.200046 2.14502 21.4976 0.733749
19 2 2.14502 0.200046 21.4976 0.733749
20 2 2.14502 2.14502 19.5529 0.747742
254 2 4.09 2.14502 17.5958 0.74961
255 2 6.03498 0.200046 17.5958 0.74961
257 2 4.09 0.200046 19.5529 0.747742
258 2 4.09 2.14502 21.4976 0.733749
259 2 6.03498 0.200046 21.4976 0.733749
260 2 6.03498 2.14502 19.5529 0.747742
134 2 0.200046 6.03498 17.5958 0.74961
135 2 2.14502 4.09 17.5958 0.74961
137 2 0.200046 4.09 19.5529 0.747742
138 2 0.200046 6.03498 21.4976 0.733749
139 2 2.14502 4.09 21.4976 0.733749
140 2 2.14502 6.03498 19.5529 0.747742
374 2 4.09 6.03498 17.5958 0.74961
375 2 6.03498 4.09 17.5958 0.74961
377 2 4.09 4.09 19.5529 0.747742
378 2 4.09 6.03498 21.4976 0.733749
379 2 6.03498 4.09 21.4976 0.733749
380 2 6.03498 6.03498 19.5529 0.747742
21 2 0.200046 0.200046 23.5528 0.740397
22 2 0.200046 2.14502 25.5566 0.498757
23 2 2.14502 0.200046 25.5566 0.498757
24 2 2.14502 2.14502 23.5528 0.740397
261 2 4.09 0.200046 23.5528 0.740397
262 2 4.09 2.14502 25.5566 0.498757
263 2 6.03498 0.200046 25.5566 0.498757
264 2 6.03498 2.14502 23.5528 0.740397
141 2 0.200046 4.09 23.5528 0.740397
142 2 0.200046 6.03498 25.5566 0.498757
143 2 2.14502 4.09 25.5566 0.498757
144 2 2.14502 6.03498 23.5528 0.740397
381 2 4.09 4.09 23.5528 0.740397
382 2 4.09 6.03498 25.5566 0.498757
383 2 6.03498 4.09 25.5566 0.498757
384 2 6.03498 6.03498 23.5528 0.740397
25 3 0.200046 0.200046 27.4162 0.470083
26 3 0.200046 2.14502 29.1505 0.508726
27 3 2.14502 0.200046 29.1505 0.508726
28 3 2.14502 2.14502 27.4162 0.470083
265 3 4.09 0.200046 27.4162 0.470083
266 3 4.09 2.14502 29.1505 0.508726
267 3 6.03498 0.200046 29.1505 0.508726
268 3 6.03498 2.14502 27.4162 0.470083
145 3 0.200046 4.09 27.4162 0.470083
146 3 0.200046 6.03498 29.1505 0.508726
147 3 2.14502 4.09 29.1505 0.508726
148 3 2.14502 6.03498 27.4162 0.470083
385 3 4.09 4.09 27.4162 0.470083
386 3 4.09 6.03498 29.1505 0.508726
387 3 6.03498 4.09 29.1505 0.508726
388 3 6.03498 6.03498 27.4162 0.470083
29 3 0.200046 0.200046 31.0404 0.480124
30 3 0.200046 2.14502 32.9562 0.482022
31 3 2.14502 0.200046 32.9562 0.482022
32 3 2.14502 2.14502 31.0404 0.480124
33 3 0.200046 0.200046 34.8613 0.520606
36 3 2.14502 2.14502 34.8613 0.520606
269 3 4.09 0.200046 31.0404 0.480124
270 3 4.09 2.14502 32.9562 0.482022
271 3 6.03498 0.200046 32.9562 0.482022
272 3 6.03498 2.14502 31.0404 0.480124
273 3 4.09 0.200046 34.8613 0.520606
276 3 6.03498 2.14502 34.8613 0.520606
149 3 0.200046 4.09 31.0404 0.480124
150 3 0.200046 6.03498 32.9562 0.482022
151 3 2.14502 4.09 32.9562 0.482022
152 3 2.14502 6.03498 31.0404 0.480124
153 3 0.200046 4.09 34.8613 0.520606
156 3 2.14502 6.03498 34.8613 0.520606
389 3 4.09 4.09 31.0404 0.480124
390 3 4.09 6.03498 32.9562 0.482022
391 3 6.03498 4.09 32.9562 0.482022
392 3 6.03498 6.03498 31.0404 0.480124
393 3 4.09 4.09 34.8613 0.520606
396 3 6.03498 6.03498 34.8613 0.520606
34 3 0.200046 2.14502 36.7734 0.370363
35 3 2.14502 0.200046 36.7734 0.370363
37 4 0.200046 0.200046 38.6772 0.580064
40 4 2.14502 2.14502 38.6772 0.580064
274 3 4.09 2.14502 36.7734 0.370363
275 3 6.03498 0.200046 36.7734 0.370363
277 4 4.09 0.200046 38.6772 0.580064
280 4 6.03498 2.14502 38.6772 0.580064
154 3 0.200046 6.03498 36.7734 0.370363
155 3 2.14502 4.09 36.7734 0.370363
157 4 0.200046 4.09 38.6772 0.580064
160 4 2.14502 6.03498 38.6772 0.580064
394 3 4.09 6.03498 36.7734 0.370363
395 3 6.03498 4.09 36.7734 0.370363
397 4 4.09 4.09 38.6772 0.580064
400 4 6.03498 6.03498 38.6772 0.580064
38 4 0.200046 2.14502 40.5832 0.67135
39 4 2.14502 0.200046 40.5832 0.67135
41 4 0.200046 0.200046 42.5242 0.637055
44 4 2.14502 2.14502 42.5242 0.637055
278 4 4.09 2.14502 40.5832 0.67135
279 4 6.03498 0.200046 40.5832 0.67135
281 4 4.09 0.200046 42.5242 0.637055
284 4 6.03498 2.14502 42.5242 0.637055
158 4 0.200046 6.03498 40.5832 0.67135
159 4 2.14502 4.09 40.5832 0.67135
161 4 0.200046 4.09 42.5242 0.637055
164 4 2.14502 6.03498 42.5242 0.637055
398 4 4.09 6.03498 40.5832 0.67135
399 4 6.03498 4.09 40.5832 0.67135
401 4 4.09 4.09 42.5242 0.637055
404 4 6.03498 6.03498 42.5242 0.637055
42 4 0.200046 2.14502 44.464 0.631267
43 4 2.14502 0.200046 44.464 0.631267
45 4 0.200046 0.200046 46.4174 0.657955
46 4 0.200046 2.14502 48.3662 0.545278
47 4 2.14502 0.200046 48.3662 0.545278
48 4 2.14502 2.14502 46.4174 0.657955
282 4 4.09 2.14502 44.464 0.631267
283 4 6.03498 0.200046 44.464 0.631267
285 4 4.09 0.200046 46.4174 0.657955
286 4 4.09 2.14502 48.3662 0.545278
287 4 6.03498 0.200046 48.3662 0.545278
288 4 6.03498 2.14502 46.4174 0.657955
162 4 0.200046 6.03498 44.464 0.631267
163 4 2.14502 4.09 44.464 0.631267
165 4 0.200046 4.09 46.4174 0.657955
166 4 0.200046 6.03498 48.3662 0.545278
167 4 2.14502 4.09 48.3662 0.545278
168 4 2.14502 6.03498 46.4174 0.657955
402 4 4.09 6.03498 44.464 0.631267
403 4 6.03498 4.09 44.464 0.631267
405 4 4.09 4.09 46.4174 0.657955
406 4 4.09 6.03498 48.3662 0.545278
407 4 6.03498 4.09 48.3662 0.545278
408 4 6.03498 6.03498 46.4174 0.657955
49 5 0.200046 0.200046 50.1788 0.574435
50 5 0.200046 2.14502 52.1251 0.434126
51 5 2.14502 0.200046 52.1251 0.434126
52 5 2.14502 2.14502 50.1788 0.574435
289 5 4.09 0.200046 50.1788 0.574435
290 5 4.09 2.14502 52.1251 0.434126
291 5 6.03498 0.200046 52.1251 0.434126
292 5 6.03498 2.14502 50.1788 0.574435
169 5 0.200046 4.09 50.1788 0.574435
170 5 0.200046 6.03498 52.1251 0.434126
171 5 2.14502 4.09 52.1251 0.434126
172 5 2.14502 6.03498 50.1788 0.574435
409 5 4.09 4.09 50.1788 0.574435
410 5 4.09 6.03498 52.1251 0.434126
411 5 6.03498 4.09 52.1251 0.434126
412 5 6.03498 6.03498 50.1788 0.574435
53 5 0.200046 0.200046 54.0119 0.438982
54 5 0.200046 2.14502 55.9266 0.432419
55 5 2.14502 0.200046 55.9266 0.432419
56 5 2.14502 2.14502 54.0119 0.438982
293 5 4.09 0.200046 54.0119 0.438982
294 5 4.09 2.14502 55.9266 0.432419
295 5 6.03498 0.200046 55.9266 0.432419
296 5 6.03498 2.14502 54.0119 0.438982
173 5 0.200046 4.09 54.0119 0.438982
174 5 0.200046 6.03498 55.9266 0.432419
175 5 2.14502 4.09 55.9266 0.432419
176 5 2.14502 6.03498 54.0119 0.438982
413 5 4.09 4.09 54.0119 0.438982
414 5 4.09 6.03498 55.9266 0.432419
415 5 6.03498 4.09 55.9266 0.432419
416 5 6.03498 6.03498 54.0119 0.438982
57 5 0.200046 0.200046 57.8315 0.434236
58 5 0.200046 2.14502 59.6324 0.463076
59 5 2.14502 0.200046 59.6324 0.463076
60 5 2.14502 2.14502 57.8315 0.434236
61 6 0.200046 0.200046 61.4981 0.434362
64 6 2.14502 2.14502 61.4981 0.434362
297 5 4.09 0.200046 57.8315 0.434236
298 5 4.09 2.14502 59.6324 0.463076
299 5 6.03498 0.200046 59.6324 0.463076
300 5 6.03498 2.14502 57.8315 0.434236
301 6 4.09 0.200046 61.4981 0.434362
304 6 6.03498 2.14502 61.4981 0.434362
177 5 0.200046 4.09 57.8315 0.434236
178 5 0.200046 6.03498 59.6324 0.463076
179 5 2.14502 4.09 59.6324 0.463076
180 5 2.14502 6.03498 57.8315 0.434236
181 6 0.200046 4.09 61.4981 0.434362
184 6 2.14502 6.03498 61.4981 0.434362
417 5 4.09 4.09 57.8315 0.434236
418 5 4.09 6.03498 59.6324 0.463076
419 5 6.03498 4.09 59.6324 0.463076
420 5 6.03498 6.03498 57.8315 0.434236
421 6 4.09 4.09 61.4981 0.434362
424 6 6.03498 6.03498 61.4981 0.434362
62 6 0.200046 2.14502 63.5259 0.438167
63 6 2.14502 0.200046 63.5259 0.438167
65 6 0.200046 0.200046 65.4885 0.404454
68 6 2.14502 2.14502 65.4885 0.404454
302 6 4.09 2.14502 63.5259 0.438167
303 6 6.03498 0.200046 63.5259 0.438167
305 6 4.09 0.200046 65.4885 0.404454
308 6 6.03498 2.14502 65.4885 0.404454
182 6 0.200046 6.03498 63.5259 0.438167
183 6 2.14502 4.09 63.5259 0.438167
185 6 0.200046 4.09 65.4885 0.404454
188 6 2.14502 6.03498 65.4885 0.404454
422 6 4.09 6.03498 63.5259 0.438167
423 6 6.03498 4.09 63.5259 0.438167
425 6 4.09 4.09 65.4885 0.404454
428 6 6.03498 6.03498 65.4885 0.404454
66 6 0.200046 2.14502 67.4071 0.403684
67 6 2.14502 0.200046 67.4071 0.403684
69 6 0.200046 0.200046 69.3152 0.410583
72 6 2.14502 2.14502 69.3152 0.410583
306 6 4.09 2.14502 67.4071 0.403684
307 6 6.03498 0.200046 67.4071 0.403684
309 6 4.09 0.200046 69.3152 0.410583
312 6 6.03498 2.14502 69.3152 0.410583
186 6 0.200046 6.03498 67.4071 0.403684
187 6 2.14502 4.09 67.4071 0.403684
189 6 0.200046 4.09 69.3152 0.410583
192 6 2.14502 6.03498 69.3152 0.410583
426 6 4.09 6.03498 67.4071 0.403684
427 6 6.03498 4.09 67.4071 0.403684
429 6 4.09 4.09 69.3152 0.410583
432 6 6.03498 6.03498 69.3152 0.410583
70 6 0.200046 2.14502 71.2179 0.486586
71 6 2.14502 0.200046 71.2179 0.486586
73 7 0.200046 0.200046 73.1322 0.474814
74 7 0.200046 2.14502 75.0497 0.643388
75 7 2.14502 0.200046 75.0497 0.643388
76 7 2.14502 2.14502 73.1322 0.474814
310 6 4.09 2.14502 71.2179 0.486586
311 6 6.03498 0.200046 71.2179 0.486586
313 7 4.09 0.200046 73.1322 0.474814
314 7 4.09 2.14502 75.0497 0.643388
315 7 6.03498 0.200046 75.0497 0.643388
316 7 6.03498 2.14502 73.1322 0.474814
190 6 0.200046 6.03498 71.2179 0.486586
191 6 2.14502 4.09 71.2179 0.486586
193 7 0.200046 4.09 73.1322 0.474814
194 7 0.200046 6.03498 75.0497 0.643388
195 7 2.14502 4.09 75.0497 0.643388
196 7 2.14502 6.03498 73.1322 0.474814
430 6 4.09 6.03498 71.2179 0.486586
431 6 6.03498 4.09 71.2179 0.486586
433 7 4.09 4.09 73.1322 0.474814
434 7 4.09 6.03498 75.0497 0.643388
435 7 6.03498 4.09 75.0497 0.643388
436 7 6.03498 6.03498 73.1322 0.474814
77 7 0.200046 0.200046 76.9775 0.63744
78 7 0.200046 2.14502 78.9056 0.6296
79 7 2.14502 0.200046 78.9056 0.6296
80 7 2.14502 2.14502 76.9775 0.63744
317 7 4.09 0.200046 76.9775 0.63744
318 7 4.09 2.14502 78.9056 0.6296
319 7 6.03498 0.200046 78.9056 0.6296
320 7 6.03498 2.14502 76.9775 0.63744
197 7 0.200046 4.09 76.9775 0.63744
198 7 0.200046 6.03498 78.9056 0.6296
199 7 2.14502 4.09 78.9056 0.6296
200 7 2.14502 6.03498 76.9775 0.63744
437 7 4.09 4.09 76.9775 0.63744
438 7 4.09 6.03498 78.9056 0.6296
439 7 6.03498 4.09 78.9056 0.6296
440 7 6.03498 6.03498 76.9775 0.63744
81 7 0.200046 0.200046 80.8694 0.637981
82 7 0.200046 2.14502 82.812 0.553798
83 7 2.14502 0.200046 82.812 0.553798
84 7 2.14502 2.14502 80.8694 0.637981
321 7 4.09 0.200046 80.8694 0.637981
322 7 4.09 2.14502 82.812 0.553798
323 7 6.03498 0.200046 82.812 0.553798
324 7 6.03498 2.14502 80.8694 0.637981
201 7 0.200046 4.09 80.8694 0.637981
202 7 0.200046 6.03498 82.812 0.553798
203 7 2.14502 4.09 82.812 0.553798
204 7 2.14502 6.03498 80.8694 0.637981
441 7 4.09 4.09 80.8694 0.637981
442 7 4.09 6.03498 82.812 0.553798
443 7 6.03498 4.09 82.812 0.553798
444 7 6.03498 6.03498 80.8694 0.637981
85 8 0.200046 0.200046 84.7439 0.572919
86 8 0.200046 2.14502 86.585 0.536496
87 8 2.14502 0.200046 86.585 0.536496
88 8 2.14502 2.14502 84.7439 0.572919
89 8 0.200046 0.200046 88.4778 0.527308
92 8 2.14502 2.14502 88.4778 0.527308
325 8 4.09 0.200046 84.7439 0.572919
326 8 4.09 2.14502 86.585 0.536496
327 8 6.03498 0.200046 86.585 0.536496
328 8 6.03498 2.14502 84.7439 0.572919
329 8 4.09 0.200046 88.4778 0.527308
332 8 6.03498 2.14502 88.4778 0.527308
205 8 0.200046 4.09 84.7439 0.572919
206 8 0.200046 6.03498 86.585 0.536496
207 8 2.14502 4.09 86.585 0.536496
208 8 2.14502 6.03498 84.7439 0.572919
209 8 0.200046 4.09 88.4778 0.527308
212 8 2.14502 6.03498 88.4778 0.527308
445 8 4.09 4.09 84.7439 0.572919
446 8 4.09 6.03498 86.585 0.536496
447 8 6.03498 4.09 86.585 0.536496
448 8 6.03498 6.03498 84.7439 0.572919
449 8 4.09 4.09 88.4778 0.527308
452 8 6.03498 6.03498 88.4778 0.527308
90 8 0.200046 2.14502 90.3836 0.509113
91 8 2.14502 0.200046 90.3836 0.509113
93 8 0.200046 0.200046 92.2902 0.485929
96 8 2.14502 2.14502 92.2902 0.485929
330 8 4.09 2.14502 90.3836 0.509113
331 8 6.03498 0.200046 90.3836 0.509113
333 8 4.09 0.200046 92.2902 0.485929
336 8 6.03498 2.14502 92.2902 0.485929
210 8 0.200046 6.03498 90.3836 0.509113
211 8 2.14502 4.09 90.3836 0.509113
213 8 0.200046 4.09 92.2902 0.485929
216 8 2.14502 6.03498 92.2902 0.485929
450 8 4.09 6.03498 90.3836 0.509113
451 8 6.03498 4.09 90.3836 0.509113
453 8 4.09 4.09 92.2902 0.485929
456 8 6.03498 6.03498 92.2902 0.485929
94 8 0.200046 2.14502 94.2563 0.580144
95 8 2.14502 0.200046 94.2563 0.580144
97 9 0.200046 0.200046 96.1697 0.498869
100 9 2.14502 2.14502 96.1697 0.498869
334 8 4.09 2.14502 94.2563 0.580144
335 8 6.03498 0.200046 94.2563 0.580144
337 9 4.09 0.200046 96.1697 0.498869
340 9 6.03498 2.14502 96.1697 0.498869
214 8 0.200046 6.03498 94.2563 0.580144
215 8 2.14502 4.09 94.2563 0.580144
217 9 0.200046 4.09 96.1697 0.498869
220 9 2.14502 6.03498 96.1697 0.498869
454 8 4.09 6.03498 94.2563 0.580144
455 8 6.03498 4.09 94.2563 0.580144
457 9 4.09 4.09 96.1697 0.498869