ITEM: TIMESTEP
0
ITEM: NUMBER OF ATOMS
480
ITEM: BOX BOUNDS pp pp pp
2.1019447209620665e-01 7.9698055279037918e+00
2.1019447209774866e-01 7.9698055279022455e+00
-3.6700663466819963e+00 1.3637006634668211e+02
ITEM: ATOMS id type element xu yu zu f_grace_gamma
1 1 Ag 0.210194 0.210194 4.24985 0.56773
4 1 Ag 2.1501 2.1501 4.24985 0.56773
241 1 Ag 4.09 0.210194 4.24985 0.56773
244 1 Ag 6.0299 2.1501 4.24985 0.56773
121 1 Ag 0.210194 4.09 4.24985 0.56773
124 1 Ag 2.1501 6.0299 4.24985 0.56773
361 1 Ag 4.09 4.09 4.24985 0.56773
364 1 Ag 6.0299 6.0299 4.24985 0.56773
2 1 Ag 0.210194 2.1501 6.35373 0.549669
3 1 Ag 2.1501 0.210194 6.35373 0.549669
5 1 Ag 0.210194 0.210194 8.45293 0.523392
8 1 Ag 2.1501 2.1501 8.45293 0.523392
242 1 Ag 4.09 2.1501 6.35373 0.549669
243 1 Ag 6.0299 0.210194 6.35373 0.549669
245 1 Ag 4.09 0.210194 8.45293 0.523392
248 1 Ag 6.0299 2.1501 8.45293 0.523392
122 1 Ag 0.210194 6.0299 6.35373 0.549669
123 1 Ag 2.1501 4.09 6.35373 0.549669
125 1 Ag 0.210194 4.09 8.45293 0.523392
128 1 Ag 2.1501 6.0299 8.45293 0.523392
362 1 Ag 4.09 6.0299 6.35373 0.549669
363 1 Ag 6.0299 4.09 6.35373 0.549669
365 1 Ag 4.09 4.09 8.45293 0.523392
368 1 Ag 6.0299 6.0299 8.45293 0.523392
6 1 Ag 0.210194 2.1501 10.5303 0.526916
7 1 Ag 2.1501 0.210194 10.5303 0.526916
9 1 Ag 0.210194 0.210194 12.5977 0.549485
12 1 Ag 2.1501 2.1501 12.5977 0.549485
246 1 Ag 4.09 2.1501 10.5303 0.526916
247 1 Ag 6.0299 0.210194 10.5303 0.526916
249 1 Ag 4.09 0.210194 12.5977 0.549485
252 1 Ag 6.0299 2.1501 12.5977 0.549485
126 1 Ag 0.210194 6.0299 10.5303 0.526916
127 1 Ag 2.1501 4.09 10.5303 0.526916
129 1 Ag 0.210194 4.09 12.5977 0.549485
132 1 Ag 2.1501 6.0299 12.5977 0.549485
366 1 Ag 4.09 6.0299 10.5303 0.526916
367 1 Ag 6.0299 4.09 10.5303 0.526916
369 1 Ag 4.09 4.09 12.5977 0.549485
372 1 Ag 6.0299 6.0299 12.5977 0.549485
10 1 Ag 0.210194 2.1501 14.6549 0.52615
11 1 Ag 2.1501 0.210194 14.6549 0.52615
13 2 Au 0.210194 0.210194 16.7416 0.511246
16 2 Au 2.1501 2.1501 16.7416 0.511246
250 1 Ag 4.09 2.1501 14.6549 0.52615
251 1 Ag 6.0299 0.210194 14.6549 0.52615
253 2 Au 4.09 0.210194 16.7416 0.511246
256 2 Au 6.0299 2.1501 16.7416 0.511246
130 1 Ag 0.210194 6.0299 14.6549 0.52615
131 1 Ag 2.1501 4.09 14.6549 0.52615
133 2 Au 0.210194 4.09 16.7416 0.511246
136 2 Au 2.1501 6.0299 16.7416 0.511246
370 1 Ag 4.09 6.0299 14.6549 0.52615
371 1 Ag 6.0299 4.09 14.6549 0.52615
373 2 Au 4.09 4.09 16.7416 0.511246
376 2 Au 6.0299 6.0299 16.7416 0.511246
14 2 Au 0.210194 2.1501 18.8866 0.669109
15 2 Au 2.1501 0.210194 18.8866 0.669109
17 2 Au 0.210194 0.210194 21.0293 0.664185
20 2 Au 2.1501 2.1501 21.0293 0.664185
254 2 Au 4.09 2.1501 18.8866 0.669109
255 2 Au 6.0299 0.210194 18.8866 0.669109
257 2 Au 4.09 0.210194 21.0293 0.664185
260 2 Au 6.0299 2.1501 21.0293 0.664185
134 2 Au 0.210194 6.0299 18.8866 0.669109
135 2 Au 2.1501 4.09 18.8866 0.669109
137 2 Au 0.210194 4.09 21.0293 0.664185
140 2 Au 2.1501 6.0299 21.0293 0.664185
374 2 Au 4.09 6.0299 18.8866 0.669109
375 2 Au 6.0299 4.09 18.8866 0.669109
377 2 Au 4.09 4.09 21.0293 0.664185
380 2 Au 6.0299 6.0299 21.0293 0.664185
18 2 Au 0.210194 2.1501 23.1801 0.663254
19 2 Au 2.1501 0.210194 23.1801 0.663254
258 2 Au 4.09 2.1501 23.1801 0.663254
259 2 Au 6.0299 0.210194 23.1801 0.663254
138 2 Au 0.210194 6.0299 23.1801 0.663254
139 2 Au 2.1501 4.09 23.1801 0.663254
378 2 Au 4.09 6.0299 23.1801 0.663254
379 2 Au 6.0299 4.09 23.1801 0.663254
21 2 Au 0.210194 0.210194 25.344 0.705279
24 2 Au 2.1501 2.1501 25.344 0.705279
261 2 Au 4.09 0.210194 25.344 0.705279
264 2 Au 6.0299 2.1501 25.344 0.705279
141 2 Au 0.210194 4.09 25.344 0.705279
144 2 Au 2.1501 6.0299 25.344 0.705279
381 2 Au 4.09 4.09 25.344 0.705279
384 2 Au 6.0299 6.0299 25.344 0.705279
22 2 Au 0.210194 2.1501 27.5409 0.546308
23 2 Au 2.1501 0.210194 27.5409 0.546308
262 2 Au 4.09 2.1501 27.5409 0.546308
263 2 Au 6.0299 0.210194 27.5409 0.546308
142 2 Au 0.210194 6.0299 27.5409 0.546308
143 2 Au 2.1501 4.09 27.5409 0.546308
382 2 Au 4.09 6.0299 27.5409 0.546308
383 2 Au 6.0299 4.09 27.5409 0.546308
25 3 Cu 0.210194 0.210194 29.3861 0.499303
26 3 Cu 0.210194 2.1501 30.9605 0.477153
27 3 Cu 2.1501 0.210194 30.9605 0.477153
28 3 Cu 2.1501 2.1501 29.3861 0.499303
265 3 Cu 4.09 0.210194 29.3861 0.499303
266 3 Cu 4.09 2.1501 30.9605 0.477153
267 3 Cu 6.0299 0.210194 30.9605 0.477153
268 3 Cu 6.0299 2.1501 29.3861 0.499303
145 3 Cu 0.210194 4.09 29.3861 0.499303
146 3 Cu 0.210194 6.0299 30.9605 0.477153
147 3 Cu 2.1501 4.09 30.9605 0.477153
148 3 Cu 2.1501 6.0299 29.3861 0.499303
385 3 Cu 4.09 4.09 29.3861 0.499303
386 3 Cu 4.09 6.0299 30.9605 0.477153
387 3 Cu 6.0299 4.09 30.9605 0.477153
388 3 Cu 6.0299 6.0299 29.3861 0.499303
29 3 Cu 0.210194 0.210194 32.5442 0.485367
30 3 Cu 0.210194 2.1501 34.1582 0.496
31 3 Cu 2.1501 0.210194 34.1582 0.496
32 3 Cu 2.1501 2.1501 32.5442 0.485367
269 3 Cu 4.09 0.210194 32.5442 0.485367
270 3 Cu 4.09 2.1501 34.1582 0.496
271 3 Cu 6.0299 0.210194 34.1582 0.496
272 3 Cu 6.0299 2.1501 32.5442 0.485367
149 3 Cu 0.210194 4.09 32.5442 0.485367
150 3 Cu 0.210194 6.0299 34.1582 0.496
151 3 Cu 2.1501 4.09 34.1582 0.496
152 3 Cu 2.1501 6.0299 32.5442 0.485367
389 3 Cu 4.09 4.09 32.5442 0.485367
390 3 Cu 4.09 6.0299 34.1582 0.496
391 3 Cu 6.0299 4.09 34.1582 0.496
392 3 Cu 6.0299 6.0299 32.5442 0.485367
33 3 Cu 0.210194 0.210194 35.8016 0.517815
36 3 Cu 2.1501 2.1501 35.8016 0.517815
273 3 Cu 4.09 0.210194 35.8016 0.517815
276 3 Cu 6.0299 2.1501 35.8016 0.517815
153 3 Cu 0.210194 4.09 35.8016 0.517815
156 3 Cu 2.1501 6.0299 35.8016 0.517815
393 3 Cu 4.09 4.09 35.8016 0.517815
396 3 Cu 6.0299 6.0299 35.8016 0.517815
34 3 Cu 0.210194 2.1501 37.5107 0.39847
35 3 Cu 2.1501 0.210194 37.5107 0.39847
37 4 Ir 0.210194 0.210194 39.3864 0.593301
40 4 Ir 2.1501 2.1501 39.3864 0.593301
274 3 Cu 4.09 2.1501 37.5107 0.39847
275 3 Cu 6.0299 0.210194 37.5107 0.39847
277 4 Ir 4.09 0.210194 39.3864 0.593301
280 4 Ir 6.0299 2.1501 39.3864 0.593301
154 3 Cu 0.210194 6.0299 37.5107 0.39847
155 3 Cu 2.1501 4.09 37.5107 0.39847
157 4 Ir 0.210194 4.09 39.3864 0.593301
160 4 Ir 2.1501 6.0299 39.3864 0.593301
394 3 Cu 4.09 6.0299 37.5107 0.39847
395 3 Cu 6.0299 4.09 37.5107 0.39847
397 4 Ir 4.09 4.09 39.3864 0.593301
400 4 Ir 6.0299 6.0299 39.3864 0.593301
38 4 Ir 0.210194 2.1501 41.2749 0.672247
39 4 Ir 2.1501 0.210194 41.2749 0.672247
41 4 Ir 0.210194 0.210194 43.2313 0.634216
44 4 Ir 2.1501 2.1501 43.2313 0.634216
278 4 Ir 4.09 2.1501 41.2749 0.672247
279 4 Ir 6.0299 0.210194 41.2749 0.672247
281 4 Ir 4.09 0.210194 43.2313 0.634216
284 4 Ir 6.0299 2.1501 43.2313 0.634216
158 4 Ir 0.210194 6.0299 41.2749 0.672247
159 4 Ir 2.1501 4.09 41.2749 0.672247
161 4 Ir 0.210194 4.09 43.2313 0.634216
164 4 Ir 2.1501 6.0299 43.2313 0.634216
398 4 Ir 4.09 6.0299 41.2749 0.672247
399 4 Ir 6.0299 4.09 41.2749 0.672247
401 4 Ir 4.09 4.09 43.2313 0.634216
404 4 Ir 6.0299 6.0299 43.2313 0.634216
42 4 Ir 0.210194 2.1501 45.1715 0.63666
43 4 Ir 2.1501 0.210194 45.1715 0.63666
45 4 Ir 0.210194 0.210194 47.1236 0.656982
408 4 Ir 6.0299 6.0299 47.1236 0.656982
405 4 Ir 4.09 4.09 47.1236 0.656982
48 4 Ir 2.1501 2.1501 47.1236 0.656982
282 4 Ir 4.09 2.1501 45.1715 0.63666
283 4 Ir 6.0299 0.210194 45.1715 0.63666
285 4 Ir 4.09 0.210194 47.1236 0.656982
403 4 Ir 6.0299 4.09 45.1715 0.63666
402 4 Ir 4.09 6.0299 45.1715 0.63666
288 4 Ir 6.0299 2.1501 47.1236 0.656982
162 4 Ir 0.210194 6.0299 45.1715 0.63666
163 4 Ir 2.1501 4.09 45.1715 0.63666
165 4 Ir 0.210194 4.09 47.1236 0.656982
168 4 Ir 2.1501 6.0299 47.1236 0.656982
49 5 Ni 0.210194 0.210194 50.8455 0.506433
50 5 Ni 0.210194 2.1501 52.545 0.512685
51 5 Ni 2.1501 0.210194 52.545 0.512685
52 5 Ni 2.1501 2.1501 50.8455 0.506433
289 5 Ni 4.09 0.210194 50.8455 0.506433
290 5 Ni 4.09 2.1501 52.545 0.512685
291 5 Ni 6.0299 0.210194 52.545 0.512685
292 5 Ni 6.0299 2.1501 50.8455 0.506433
169 5 Ni 0.210194 4.09 50.8455 0.506433
170 5 Ni 0.210194 6.0299 52.545 0.512685
171 5 Ni 2.1501 4.09 52.545 0.512685
172 5 Ni 2.1501 6.0299 50.8455 0.506433
409 5 Ni 4.09 4.09 50.8455 0.506433
410 5 Ni 4.09 6.0299 52.545 0.512685
411 5 Ni 6.0299 4.09 52.545 0.512685
412 5 Ni 6.0299 6.0299 50.8455 0.506433
46 4 Ir 0.210194 2.1501 49.063 0.556353
47 4 Ir 2.1501 0.210194 49.063 0.556353
407 4 Ir 6.0299 4.09 49.063 0.556353
406 4 Ir 4.09 6.0299 49.063 0.556353
286 4 Ir 4.09 2.1501 49.063 0.556353
287 4 Ir 6.0299 0.210194 49.063 0.556353
166 4 Ir 0.210194 6.0299 49.063 0.556353
167 4 Ir 2.1501 4.09 49.063 0.556353
53 5 Ni 0.210194 0.210194 54.1485 0.527248
54 5 Ni 0.210194 2.1501 55.7394 0.531938
55 5 Ni 2.1501 0.210194 55.7394 0.531938
56 5 Ni 2.1501 2.1501 54.1485 0.527248
293 5 Ni 4.09 0.210194 54.1485 0.527248
294 5 Ni 4.09 2.1501 55.7394 0.531938
295 5 Ni 6.0299 0.210194 55.7394 0.531938
296 5 Ni 6.0299 2.1501 54.1485 0.527248
173 5 Ni 0.210194 4.09 54.1485 0.527248
174 5 Ni 0.210194 6.0299 55.7394 0.531938
175 5 Ni 2.1501 4.09 55.7394 0.531938
176 5 Ni 2.1501 6.0299 54.1485 0.527248
413 5 Ni 4.09 4.09 54.1485 0.527248
414 5 Ni 4.09 6.0299 55.7394 0.531938
415 5 Ni 6.0299 4.09 55.7394 0.531938
416 5 Ni 6.0299 6.0299 54.1485 0.527248
57 5 Ni 0.210194 0.210194 57.3157 0.49081
60 5 Ni 2.1501 2.1501 57.3157 0.49081
297 5 Ni 4.09 0.210194 57.3157 0.49081
300 5 Ni 6.0299 2.1501 57.3157 0.49081
177 5 Ni 0.210194 4.09 57.3157 0.49081
180 5 Ni 2.1501 6.0299 57.3157 0.49081
417 5 Ni 4.09 4.09 57.3157 0.49081
420 5 Ni 6.0299 6.0299 57.3157 0.49081
58 5 Ni 0.210194 2.1501 58.8701 0.500068
59 5 Ni 2.1501 0.210194 58.8701 0.500068
61 6 Pd 0.210194 0.210194 60.6914 0.437116
64 6 Pd 2.1501 2.1501 60.6914 0.437116
298 5 Ni 4.09 2.1501 58.8701 0.500068
299 5 Ni 6.0299 0.210194 58.8701 0.500068
301 6 Pd 4.09 0.210194 60.6914 0.437116
304 6 Pd 6.0299 2.1501 60.6914 0.437116
178 5 Ni 0.210194 6.0299 58.8701 0.500068
179 5 Ni 2.1501 4.09 58.8701 0.500068
181 6 Pd 0.210194 4.09 60.6914 0.437116
184 6 Pd 2.1501 6.0299 60.6914 0.437116
418 5 Ni 4.09 6.0299 58.8701 0.500068
419 5 Ni 6.0299 4.09 58.8701 0.500068
421 6 Pd 4.09 4.09 60.6914 0.437116
424 6 Pd 6.0299 6.0299 60.6914 0.437116
62 6 Pd 0.210194 2.1501 62.7678 0.486129
63 6 Pd 2.1501 0.210194 62.7678 0.486129
65 6 Pd 0.210194 0.210194 64.8009 0.460691
68 6 Pd 2.1501 2.1501 64.8009 0.460691
302 6 Pd 4.09 2.1501 62.7678 0.486129
303 6 Pd 6.0299 0.210194 62.7678 0.486129
305 6 Pd 4.09 0.210194 64.8009 0.460691
308 6 Pd 6.0299 2.1501 64.8009 0.460691
182 6 Pd 0.210194 6.0299 62.7678 0.486129
183 6 Pd 2.1501 4.09 62.7678 0.486129
185 6 Pd 0.210194 4.09 64.8009 0.460691
188 6 Pd 2.1501 6.0299 64.8009 0.460691
422 6 Pd 4.09 6.0299 62.7678 0.486129
423 6 Pd 6.0299 4.09 62.7678 0.486129
425 6 Pd 4.09 4.09 64.8009 0.460691
428 6 Pd 6.0299 6.0299 64.8009 0.460691
66 6 Pd 0.210194 2.1501 66.8143 0.448707
67 6 Pd 2.1501 0.210194 66.8143 0.448707
69 6 Pd 0.210194 0.210194 68.8076 0.448323
72 6 Pd 2.1501 2.1501 68.8076 0.448323
306 6 Pd 4.09 2.1501 66.8143 0.448707
307 6 Pd 6.0299 0.210194 66.8143 0.448707
309 6 Pd 4.09 0.210194 68.8076 0.448323
312 6 Pd 6.0299 2.1501 68.8076 0.448323
186 6 Pd 0.210194 6.0299 66.8143 0.448707
187 6 Pd 2.1501 4.09 66.8143 0.448707
189 6 Pd 0.210194 4.09 68.8076 0.448323
192 6 Pd 2.1501 6.0299 68.8076 0.448323
426 6 Pd 4.09 6.0299 66.8143 0.448707
427 6 Pd 6.0299 4.09 66.8143 0.448707
429 6 Pd 4.09 4.09 68.8076 0.448323
432 6 Pd 6.0299 6.0299 68.8076 0.448323
70 6 Pd 0.210194 2.1501 70.7915 0.557678
71 6 Pd 2.1501 0.210194 70.7915 0.557678
73 7 Pt 0.210194 0.210194 72.759 0.45661
74 7 Pt 0.210194 2.1501 74.7264 0.607171
75 7 Pt 2.1501 0.210194 74.7264 0.607171
76 7 Pt 2.1501 2.1501 72.759 0.45661
310 6 Pd 4.09 2.1501 70.7915 0.557678
311 6 Pd 6.0299 0.210194 70.7915 0.557678
313 7 Pt 4.09 0.210194 72.759 0.45661
314 7 Pt 4.09 2.1501 74.7264 0.607171
315 7 Pt 6.0299 0.210194 74.7264 0.607171
316 7 Pt 6.0299 2.1501 72.759 0.45661
190 6 Pd 0.210194 6.0299 70.7915 0.557678
191 6 Pd 2.1501 4.09 70.7915 0.557678
193 7 Pt 0.210194 4.09 72.759 0.45661
194 7 Pt 0.210194 6.0299 74.7264 0.607171
195 7 Pt 2.1501 4.09 74.7264 0.607171
196 7 Pt 2.1501 6.0299 72.759 0.45661
430 6 Pd 4.09 6.0299 70.7915 0.557678
431 6 Pd 6.0299 4.09 70.7915 0.557678
433 7 Pt 4.09 4.09 72.759 0.45661
434 7 Pt 4.09 6.0299 74.7264 0.607171
435 7 Pt 6.0299 4.09 74.7264 0.607171
436 7 Pt 6.0299 6.0299 72.759 0.45661
77 7 Pt 0.210194 0.210194 76.7054 0.606657
78 7 Pt 0.210194 2.1501 78.6438 0.607702
79 7 Pt 2.1501 0.210194 78.6438 0.607702
80 7 Pt 2.1501 2.1501 76.7054 0.606657
317 7 Pt 4.09 0.210194 76.7054 0.606657
318 7 Pt 4.09 2.1501 78.6438 0.607702
319 7 Pt 6.0299 0.210194 78.6438 0.607702
320 7 Pt 6.0299 2.1501 76.7054 0.606657
197 7 Pt 0.210194 4.09 76.7054 0.606657
198 7 Pt 0.210194 6.0299 78.6438 0.607702
199 7 Pt 2.1501 4.09 78.6438 0.607702
200 7 Pt 2.1501 6.0299 76.7054 0.606657
437 7 Pt 4.09 4.09 76.7054 0.606657
438 7 Pt 4.09 6.0299 78.6438 0.607702
439 7 Pt 6.0299 4.09 78.6438 0.607702
440 7 Pt 6.0299 6.0299 76.7054 0.606657
81 7 Pt 0.210194 0.210194 80.6159 0.622708
82 7 Pt 0.210194 2.1501 82.5451 0.548264
83 7 Pt 2.1501 0.210194 82.5451 0.548264
84 7 Pt 2.1501 2.1501 80.6159 0.622708
321 7 Pt 4.09 0.210194 80.6159 0.622708
322 7 Pt 4.09 2.1501 82.5451 0.548264
323 7 Pt 6.0299 0.210194 82.5451 0.548264
324 7 Pt 6.0299 2.1501 80.6159 0.622708
201 7 Pt 0.210194 4.09 80.6159 0.622708
202 7 Pt 0.210194 6.0299 82.5451 0.548264
203 7 Pt 2.1501 4.09 82.5451 0.548264
204 7 Pt 2.1501 6.0299 80.6159 0.622708
441 7 Pt 4.09 4.09 80.6159 0.622708
442 7 Pt 4.09 6.0299 82.5451 0.548264
443 7 Pt 6.0299 4.09 82.5451 0.548264
444 7 Pt 6.0299 6.0299 80.6159 0.622708
85 8 Rh 0.210194 0.210194 84.4299 0.574516
86 8 Rh 0.210194 2.1501 86.2078 0.537298
87 8 Rh 2.1501 0.210194 86.2078 0.537298
88 8 Rh 2.1501 2.1501 84.4299 0.574516
89 8 Rh 0.210194 0.210194 88.0129 0.548268
92 8 Rh 2.1501 2.1501 88.0129 0.548268
325 8 Rh 4.09 0.210194 84.4299 0.574516
326 8 Rh 4.09 2.1501 86.2078 0.537298
327 8 Rh 6.0299 0.210194 86.2078 0.537298
328 8 Rh 6.0299 2.1501 84.4299 0.574516
329 8 Rh 4.09 0.210194 88.0129 0.548268
332 8 Rh 6.0299 2.1501 88.0129 0.548268
205 8 Rh 0.210194 4.09 84.4299 0.574516
206 8 Rh 0.210194 6.0299 86.2078 0.537298
207 8 Rh 2.1501 4.09 86.2078 0.537298
208 8 Rh 2.1501 6.0299 84.4299 0.574516
209 8 Rh 0.210194 4.09 88.0129 0.548268
212 8 Rh 2.1501 6.0299 88.0129 0.548268
445 8 Rh 4.09 4.09 84.4299 0.574516
446 8 Rh 4.09 6.0299 86.2078 0.537298
447 8 Rh 6.0299 4.09 86.2078 0.537298
448 8 Rh 6.0299 6.0299 84.4299 0.574516
449 8 Rh 4.09 4.09 88.0129 0.548268
452 8 Rh 6.0299 6.0299 88.0129 0.548268
90 8 Rh 0.210194 2.1501 89.8086 0.547433
91 8 Rh 2.1501 0.210194 89.8086 0.547433
93 8 Rh 0.210194 0.210194 91.5954 0.538569
96 8 Rh 2.1501 2.1501 91.5954 0.538569
330 8 Rh 4.09 2.1501 89.8086 0.547433
331 8 Rh 6.0299 0.210194 89.8086 0.547433
333 8 Rh 4.09 0.210194 91.5954 0.538569
336 8 Rh 6.0299 2.1501 91.5954 0.538569
210 8 Rh 0.210194 6.0299 89.8086 0.547433
211 8 Rh 2.1501 4.09 89.8086 0.547433
213 8 Rh 0.210194 4.09 91.5954 0.538569
216 8 Rh 2.1501 6.0299 91.5954 0.538569
450 8 Rh 4.09 6.0299 89.8086 0.547433
451 8 Rh 6.0299 4.09 89.8086 0.547433
453 8 Rh 4.09 4.09 91.5954 0.538569
456 8 Rh 6.0299 6.0299 91.5954 0.538569
94 8 Rh 0.210194 2.1501 93.4119 0.56252
95 8 Rh 2.1501 0.210194 93.4119 0.56252
97 9 Ru 0.210194 0.210194 95.2032 0.458185
100 9 Ru 2.1501 2.1501 95.2032 0.458185
334 8 Rh 4.09 2.1501 93.4119 0.56252
335 8 Rh 6.0299 0.210194 93.4119 0.56252
337 9 Ru 4.09 0.210194 95.2032 0.458185
340 9 Ru 6.0299 2.1501 95.2032 0.458185
214 8 Rh 0.210194 6.0299 93.4119 0.56252
215 8 Rh 2.1501 4.09 93.4119 0.56252
217 9 Ru 0.210194 4.09 95.2032 0.458185
220 9 Ru 2.1501 6.0299 95.2032 0.458185
454 8 Rh 4.09 6.0299 93.4119 0.56252
455 8 Rh 6.0299 4.09 93.4119 0.56252
457 9 Ru 4.09 4.09 95.2032 0.458185
460 9 Ru 6.0299 6.0299 95.2032 0.458185
98 9 Ru 0.210194 2.1501 96.9575 0.490351
99 9 Ru 2.1501 0.210194 96.9575 0.490351
338 9 Ru 4.09 2.1501 96.9575 0.490351
339 9 Ru 6.0299 0.210194 96.9575 0.490351
218 9 Ru 0.210194 6.0299 96.9575 0.490351
219 9 Ru 2.1501 4.09 96.9575 0.490351
458 9 Ru 4.09 6.0299 96.9575 0.490351
459 9 Ru 6.0299 4.09 96.9575 0.490351
101 9 Ru 0.210194 0.210194 98.7616 0.494875
102 9 Ru 0.210194 2.1501 100.531 0.494663
103 9 Ru 2.1501 0.210194 100.531 0.494663
104 9 Ru 2.1501 2.1501 98.7616 0.494875
341 9 Ru 4.09 0.210194 98.7616 0.494875
342 9 Ru 4.09 2.1501 100.531 0.494663
343 9 Ru 6.0299 0.210194 100.531 0.494663
344 9 Ru 6.0299 2.1501 98.7616 0.494875
221 9 Ru 0.210194 4.09 98.7616 0.494875
222 9 Ru 0.210194 6.0299 100.531 0.494663
223 9 Ru 2.1501 4.09 100.531 0.494663
224 9 Ru 2.1501 6.0299 98.7616 0.494875
461 9 Ru 4.09 4.09 98.7616 0.494875
462 9 Ru 4.09 6.0299 100.531 0.494663
463 9 Ru 6.0299 4.09 100.531 0.494663
464 9 Ru 6.0299 6.0299 98.7616 0.494875
105 9 Ru 0.210194 0.210194 102.337 0.455788
106 9 Ru 0.210194 2.1501 104.066 0.607573
107 9 Ru 2.1501 0.210194 104.066 0.607573
108 9 Ru 2.1501 2.1501 102.337 0.455788
345 9 Ru 4.09 0.210194 102.337 0.455788
346 9 Ru 4.09 2.1501 104.066 0.607573
347 9 Ru 6.0299 0.210194 104.066 0.607573
348 9 Ru 6.0299 2.1501 102.337 0.455788
225 9 Ru 0.210194 4.09 102.337 0.455788
226 9 Ru 0.210194 6.0299 104.066 0.607573
227 9 Ru 2.1501 4.09 104.066 0.607573
228 9 Ru 2.1501 6.0299 102.337 0.455788
465 9 Ru 4.09 4.09 102.337 0.455788
466 9 Ru 4.09 6.0299 104.066 0.607573
467 9 Ru 6.0299 4.09 104.066 0.607573
468 9 Ru 6.0299 6.0299 102.337 0.455788
109 10 Sc 0.210194 0.210194 105.943 0.598843
110 10 Sc 0.210194 2.1501 108.459 0.569573
111 10 Sc 2.1501 0.210194 108.459 0.569573
112 10 Sc 2.1501 2.1501 105.943 0.598843
349 10 Sc 4.09 0.210194 105.943 0.598843
350 10 Sc 4.09 2.1501 108.459 0.569573
351 10 Sc 6.0299 0.210194 108.459 0.569573
352 10 Sc 6.0299 2.1501 105.943 0.598843
229 10 Sc 0.210194 4.09 105.943 0.598843
230 10 Sc 0.210194 6.0299 108.459 0.569573
231 10 Sc 2.1501 4.09 108.459 0.569573
232 10 Sc 2.1501 6.0299 105.943 0.598843
469 10 Sc 4.09 4.09 105.943 0.598843
470 10 Sc 4.09 6.0299 108.459 0.569573
471 10 Sc 6.0299 4.09 108.459 0.569573
472 10 Sc 6.0299 6.0299 105.943 0.598843
113 10 Sc 0.210194 0.210194 110.873 0.583173
114 10 Sc 0.210194 2.1501 113.351 0.5498
115 10 Sc 2.1501 0.210194 113.351 0.5498
116 10 Sc 2.1501 2.1501 110.873 0.583173
353 10 Sc 4.09 0.210194 110.873 0.583173
354 10 Sc 4.09 2.1501 113.351 0.5498
355 10 Sc 6.0299 0.210194 113.351 0.5498
356 10 Sc 6.0299 2.1501 110.873 0.583173
233 10 Sc 0.210194 4.09 110.873 0.583173
234 10 Sc 0.210194 6.0299 113.351 0.5498
235 10 Sc 2.1501 4.09 113.351 0.5498
236 10 Sc 2.1501 6.0299 110.873 0.583173
473 10 Sc 4.09 4.09 110.873 0.583173
474 10 Sc 4.09 6.0299 113.351 0.5498
475 10 Sc 6.0299 4.09 113.351 0.5498
476 10 Sc 6.0299 6.0299 110.873 0.583173
117 10 Sc 0.210194 0.210194 115.907 0.545058
120 10 Sc 2.1501 2.1501 115.907 0.545058
357 10 Sc 4.09 0.210194 115.907 0.545058
360 10 Sc 6.0299 2.1501 115.907 0.545058
237 10 Sc 0.210194 4.09 115.907 0.545058
240 10 Sc 2.1501 6.0299 115.907 0.545058
477 10 Sc 4.09 4.09 115.907 0.545058
480 10 Sc 6.0299 6.0299 115.907 0.545058
118 10 Sc 0.210194 2.1501 118.444 0.669056
119 10 Sc 2.1501 0.210194 118.444 0.669056
358 10 Sc 4.09 2.1501 118.444 0.669056
359 10 Sc 6.0299 0.210194 118.444 0.669056
238 10 Sc 0.210194 6.0299 118.444 0.669056
239 10 Sc 2.1501 4.09 118.444 0.669056
478 10 Sc 4.09 6.0299 118.444 0.669056
479 10 Sc 6.0299 4.09 118.444 0.669056
ITEM: TIMESTEP
50
ITEM: NUMBER OF ATOMS
480
ITEM: BOX BOUNDS pp pp pp
2.0100154678418525e-01 7.9789984532158131e+00
2.0010464285053242e-01 7.9798953571494629e+00
-4.7877331139508641e+00 1.3748773311395109e+02
ITEM: ATOMS id type element xu yu zu f_grace_gamma
1 10 Sc -0.222906 0.187926 3.3659 0.531391
4 10 Sc 2.14466 2.10642 3.25169 0.482429
241 2 Au 4.0952 0.093858 3.26815 0.489139
244 1 Ag 6.00907 2.09633 3.10007 0.680945
121 1 Ag 0.141858 4.00077 3.06173 0.584561
124 10 Sc 2.29081 5.81679 3.26003 0.526103
361 1 Ag 3.86307 3.89102 3.24871 0.591961
364 1 Ag 6.14163 6.03127 3.33614 0.575168
2 1 Ag 0.201252 2.10563 5.43974 0.425986
3 1 Ag 2.01276 -0.0420112 5.36869 0.482791
5 1 Ag 0.177291 0.16669 7.40177 0.41662
8 5 Ni 1.99761 2.02763 7.40811 0.470705
242 1 Ag 4.00289 2.15557 5.39688 0.386331
243 6 Pd 6.05963 0.41458 5.32141 0.551521
245 2 Au 4.13025 0.322714 7.64936 0.441273
248 1 Ag 6.08931 2.13805 7.53892 0.400288
122 1 Ag 0.103572 5.95971 5.40791 0.461194
123 6 Pd 2.05588 4.1042 5.25928 0.480919
125 2 Au 0.331889 4.19837 7.39234 0.451175
128 1 Ag 2.04666 6.24388 7.53852 0.386251
362 1 Ag 4.08158 6.11007 5.49742 0.359861
363 2 Au 5.97081 4.04695 5.22349 0.577398
365 1 Ag 4.00341 4.19639 7.31406 0.525848
368 5 Ni 6.00754 6.10764 7.61633 0.539963
6 1 Ag 0.269846 2.21819 9.59091 0.420677
7 1 Ag 2.11398 0.262668 9.65379 0.399105
9 1 Ag 0.127346 0.077844 11.7039 0.373884
12 2 Au 2.14274 2.11467 11.7169 0.457435
246 1 Ag 4.11506 2.28546 9.61224 0.377857
247 1 Ag 6.15178 0.0825478 9.61507 0.392199
249 6 Pd 4.24288 0.246087 11.6417 0.483388
252 1 Ag 5.99715 2.06483 11.5242 0.402197
126 1 Ag 0.146011 6.22546 9.53555 0.460658
127 1 Ag 2.10371 4.15137 9.77432 0.417289
129 1 Ag -0.0475703 4.00924 11.6812 0.4363
132 1 Ag 2.14844 6.22965 11.4187 0.469268
366 1 Ag 4.2186 5.78975 9.57817 0.40873
367 1 Ag 6.14193 4.07827 9.49996 0.441443
369 2 Au 4.10118 4.0426 11.7273 0.622347
372 1 Ag 6.14397 6.06118 11.7633 0.426296
10 10 Sc 0.191673 2.06211 13.7705 0.580585
11 1 Ag 2.16995 0.139647 13.6979 0.465103
13 2 Au 0.148465 0.133249 15.9273 0.481952
16 2 Au 2.13665 2.08948 16.1003 0.344991
250 1 Ag 4.13216 2.14068 13.7836 0.44694
251 1 Ag 6.08044 0.171651 13.8324 0.450979
253 2 Au 4.14854 0.154392 15.9768 0.346502
256 2 Au 5.99112 2.13292 15.9816 0.395916
130 6 Pd 0.366483 6.14107 13.8717 0.52537
131 1 Ag 2.08244 4.15589 13.9017 0.427236
133 2 Au 0.282492 4.12883 15.9782 0.390376
136 10 Sc 2.11464 6.10824 15.9458 0.548703
370 1 Ag 4.03525 6.07194 13.8633 0.401859
371 1 Ag 6.02418 4.10957 13.7297 0.430656
373 1 Ag 4.12557 4.07266 15.8375 0.429665
376 10 Sc 6.17337 6.11998 16.0147 0.534009
14 2 Au 0.0546985 2.11016 18.1267 0.386407
15 6 Pd 2.14286 0.278579 18.2152 0.36377
17 6 Pd 0.263691 0.381059 20.2107 0.395042
20 10 Sc 2.29916 1.82687 20.241 0.456115
254 2 Au 4.03918 2.18838 18.2085 0.302403
255 1 Ag 5.97635 0.198031 18.2393 0.296829
257 4 Ir 4.26766 0.126911 20.2177 0.445987
260 6 Pd 5.8964 2.14784 20.2467 0.400384
134 2 Au 0.265749 6.01706 18.3784 0.386854
135 3 Cu 1.94433 4.16065 18.0688 0.38494
137 2 Au 0.24016 3.99928 20.1377 0.394377
140 10 Sc 2.18659 6.28591 20.4596 0.57853
374 2 Au 4.05741 6.05841 18.0913 0.437252
375 2 Au 6.05278 4.22896 18.0504 0.447038
377 2 Au 4.10459 4.10546 20.1633 0.37887
380 6 Pd 6.06008 6.12937 20.6389 0.29469
18 2 Au 0.1911 2.19086 22.3793 0.432382
19 1 Ag 2.07252 0.284913 22.5156 0.378044
258 2 Au 4.09605 2.06133 22.4111 0.299986
259 6 Pd 5.9817 0.322678 22.4011 0.345081
138 2 Au 0.0993882 6.15933 22.4446 0.485952
139 2 Au 2.30203 4.11989 22.3661 0.435015
378 6 Pd 4.19605 6.11657 22.583 0.369114
379 2 Au 5.96623 4.04845 22.3727 0.658898
21 2 Au 0.139106 0.263197 24.6353 0.522499
24 10 Sc 2.17893 2.29435 24.8888 0.621862
261 1 Ag 4.18366 0.475506 24.5039 0.35367
264 2 Au 6.04081 2.32085 24.7209 0.589873
141 2 Au 0.268092 4.02773 24.7279 0.524824
144 6 Pd 2.20188 6.21237 24.7718 0.497483
381 2 Au 3.97965 4.11401 24.759 0.390997
384 2 Au 5.9019 5.9837 24.7311 0.555474
22 2 Au 0.232717 2.23609 26.8754 0.37686
23 2 Au 2.12764 0.228961 26.859 0.346499
262 2 Au 4.21907 2.13117 27.0749 0.377125
263 2 Au 6.08833 0.229769 26.8573 0.352007
142 2 Au 0.119307 6.02336 26.8315 0.442671
143 6 Pd 2.32535 4.19188 27.0168 0.438766
382 10 Sc 4.00467 5.87284 26.7715 0.427552
383 2 Au 5.93301 4.05724 26.9365 0.386304
25 3 Cu 0.242942 0.283012 28.6082 0.393598
26 7 Pt 0.192144 2.0035 30.3734 0.464539
27 3 Cu 1.997 0.190908 30.3103 0.396751
28 5 Ni 2.09856 2.19605 28.5367 0.403095
265 3 Cu 3.75577 0.261855 28.7778 0.400382
266 3 Cu 3.89911 2.22794 30.3296 0.389945
267 3 Cu 6.17385 0.282885 30.6597 0.320663
268 3 Cu 5.9294 1.90901 29.0524 0.312919
145 3 Cu 0.222253 4.161 28.793 0.312612
146 3 Cu 0.112447 5.99803 30.233 0.391981
147 3 Cu 2.11914 4.16051 30.5945 0.424182
148 3 Cu 2.12473 5.96757 28.8213 0.403616
385 5 Ni 4.21901 4.0011 28.9077 0.447944
386 6 Pd 4.20789 6.14343 30.1539 0.501175
387 5 Ni 6.06035 4.02912 30.2005 0.304082
388 5 Ni 5.95935 6.30872 28.592 0.335
29 3 Cu 0.425635 0.127179 31.9684 0.311267
30 10 Sc 0.121383 2.10549 33.653 0.501938
31 3 Cu 2.01335 0.174855 33.4798 0.416289
32 3 Cu 2.13756 2.2538 31.9449 0.418272
269 3 Cu 4.04756 0.476596 31.9911 0.405924
270 3 Cu 3.96865 1.99126 33.6023 0.407254
271 3 Cu 6.06689 0.320216 33.4922 0.453987
272 5 Ni 5.77426 2.18504 31.9753 0.413797
149 3 Cu -0.0531833 4.1078 31.8511 0.302014
150 5 Ni 0.357103 6.03119 33.6932 0.406205
151 3 Cu 1.94764 4.06896 33.4032 0.403986
152 3 Cu 2.21748 6.03596 31.858 0.398785
389 3 Cu 4.04795 3.99966 32.1681 0.386216
390 3 Cu 3.99973 5.87812 33.6668 0.421951
391 3 Cu 5.87693 4.02059 33.5455 0.45379
392 7 Pt 6.15662 6.14723 32.0868 0.406812
33 3 Cu 0.21846 0.10714 35.516 0.368702
36 6 Pd 2.27572 1.95844 35.2917 0.410375
273 6 Pd 4.13251 0.0447091 35.3763 0.367808
276 3 Cu 6.13764 2.12876 35.3504 0.266779
153 8 Rh 0.307497 4.0207 35.2608 0.43683
156 2 Au 2.14295 6.02598 35.4 0.413529
393 3 Cu 3.94966 4.17142 35.3001 0.398901
396 10 Sc 6.22666 5.96813 35.1978 0.428639
34 3 Cu 0.252553 1.92493 37.2 0.276369
35 3 Cu 2.20428 0.0789325 37.1504 0.354319
37 6 Pd -0.0273741 0.120206 39.0959 0.373493
40 8 Rh 2.24522 2.12978 39.0159 0.347416
274 3 Cu 4.27735 2.17206 37.0632 0.266198
275 7 Pt 5.98366 0.115302 37.0839 0.424381
277 10 Sc 4.11421 0.145857 39.0134 0.646468
280 4 Ir 5.97438 1.9994 39.1986 0.343175
154 3 Cu 0.369786 5.81816 37.1224 0.30376
155 3 Cu 2.32642 4.02553 37.2758 0.296275
157 10 Sc 0.447579 3.93207 39.013 0.53841
160 4 Ir 2.20354 5.95404 38.9169 0.534148
394 3 Cu 4.30576 5.87422 37.2393 0.444562
395 7 Pt 6.04611 4.02956 37.0101 0.37852
397 9 Ru 4.19737 4.04077 39.0056 0.3691
400 4 Ir 5.96821 5.87196 38.9196 0.319071
38 4 Ir 0.180939 2.3611 41.0444 0.362842
39 4 Ir 2.04011 0.248106 40.7715 0.329267
41 4 Ir 0.151543 0.166781 42.893 0.517085
44 9 Ru 2.15948 2.16043 42.7578 0.515854
278 4 Ir 4.06446 2.31667 40.9437 0.328583
279 8 Rh 6.14651 0.21729 41.1124 0.661212
281 5 Ni 3.98364 0.460571 42.8351 0.64234
284 7 Pt 5.98104 2.12985 42.8575 0.61174
158 4 Ir 0.276068 6.05537 40.872 0.391099
159 5 Ni 2.38519 4.09313 40.77 0.691895
161 4 Ir 0.273674 4.17079 42.9543 0.470348
164 9 Ru 1.90585 6.1796 42.7598 0.505009
398 4 Ir 4.02639 6.00905 40.8631 0.342914
399 4 Ir 6.01081 4.1187 40.8622 0.390381
401 4 Ir 4.13911 4.04206 42.8443 0.525383
404 4 Ir 6.11484 5.95193 42.865 0.552721
42 4 Ir 0.209539 2.0958 44.8351 0.334446
43 7 Pt 2.27388 0.211855 44.8679 0.686143
45 4 Ir 0.194987 0.254586 46.8308 0.340205
408 8 Rh 5.83342 5.90525 46.565 0.668645
405 9 Ru 4.05655 4.0191 47.071 0.580942
48 9 Ru 2.30741 2.10568 46.6417 0.368949
282 4 Ir 4.08182 2.21973 44.9607 0.47071
283 4 Ir 6.06855 0.164818 44.7707 0.560347
285 4 Ir 4.14702 0.192732 46.7666 0.355351
403 9 Ru 5.87901 4.11358 44.9187 0.428356
402 4 Ir 3.95265 5.96122 44.7939 0.432061
288 4 Ir 6.0546 2.01632 46.9595 0.349332
162 4 Ir 0.126752 6.08919 44.9696 0.342505
163 4 Ir 2.27205 4.11552 44.6758 0.385699
165 10 Sc 0.331894 3.97037 46.8207 0.82736
168 4 Ir 2.03788 5.99197 46.8519 0.400476
49 5 Ni 0.0420788 0.14273 50.5636 0.470827
50 5 Ni 0.174886 2.05751 52.2854 0.453007
51 5 Ni 2.1323 0.165892 52.1494 0.467243
52 5 Ni 1.96798 2.09825 50.4474 0.439587
289 10 Sc 4.14868 0.25684 50.7655 0.571415
290 5 Ni 4.05505 2.25004 52.2761 0.410773
291 4 Ir 6.06642 0.302003 52.3094 0.440769
292 5 Ni 6.28821 2.0587 50.6263 0.381618
169 7 Pt 0.213242 3.99671 50.5945 0.499018
170 7 Pt 0.14824 6.00911 52.2288 0.390632
171 5 Ni 2.07997 3.97746 52.2998 0.614699
172 5 Ni 2.22723 5.96664 50.5665 0.422242
409 5 Ni 4.01118 4.02543 50.713 0.358998
410 8 Rh 4.15581 6.01837 52.3219 0.508373
411 10 Sc 5.92625 4.17541 52.3578 0.541956
412 5 Ni 5.92681 6.07996 50.2648 0.516747
46 8 Rh 0.119001 2.06558 48.7359 0.387292
47 10 Sc 2.00236 0.211696 48.6741 0.385051
407 4 Ir 6.03937 4.02071 48.6812 0.307186
406 4 Ir 4.16652 5.95603 48.6427 0.475514
286 4 Ir 4.1278 2.08469 48.7815 0.437135
287 9 Ru 6.12364 0.259037 48.7565 0.352012
166 4 Ir 0.172862 6.06947 48.7534 0.442554
167 4 Ir 2.08278 4.07727 48.7752 0.305496
53 5 Ni 0.152106 0.409854 53.8162 0.407186
54 5 Ni 0.336692 2.02536 55.4735 0.41194
55 10 Sc 2.18903 0.0928848 55.6176 0.680886
56 8 Rh 2.24608 2.20272 53.8713 0.346791
293 5 Ni 4.17607 0.429788 53.9038 0.39547
294 5 Ni 4.27562 2.29312 55.399 0.434845
295 3 Cu 5.93319 0.243226 55.6857 0.421243
296 5 Ni 6.20596 2.12979 54.0692 0.339611
173 5 Ni 0.212377 3.85837 54.0671 0.32257
174 4 Ir 0.159755 5.93548 55.5522 0.601493
175 5 Ni 1.99179 4.11729 55.6411 0.465382
176 7 Pt 2.25987 5.887 53.9704 0.422607
413 5 Ni 4.00732 3.98258 53.9945 0.329287
414 5 Ni 4.20679 5.91645 55.4189 0.48465
415 5 Ni 6.07093 4.11455 55.4244 0.452098
416 5 Ni 5.98979 6.2899 54.1048 0.347171
57 5 Ni 0.0626908 0.173968 57.2034 0.285703
60 4 Ir 2.1269 2.19265 57.1701 0.645036
297 5 Ni 4.08764 -0.0466996 57.248 0.411335
300 4 Ir 6.12367 2.022 57.164 0.548294
177 5 Ni 0.302018 3.83066 57.0958 0.450959
180 5 Ni 2.41545 5.96706 57.2859 0.279542
417 3 Cu 3.99489 4.02637 57.1455 0.342156
420 5 Ni 5.87048 6.07735 56.8417 0.509535
58 5 Ni 0.131886 1.94231 58.7615 0.53023
59 5 Ni 2.15462 -0.130291 58.8029 0.437173
61 7 Pt 0.238051 0.214225 60.7302 0.433704
64 1 Ag 2.03933 2.15499 60.648 0.374819
298 10 Sc 4.15466 2.07957 58.9087 0.56024
299 5 Ni 5.97356 0.0608953 58.6672 0.348039
301 2 Au 4.0859 0.131848 60.6252 0.519425
304 6 Pd 6.08143 2.08045 60.7814 0.439028
178 3 Cu 0.180126 5.94599 58.6418 0.500108
179 5 Ni 1.99347 4.17273 58.7511 0.439637
181 6 Pd 0.160062 4.02694 60.4986 0.463668
184 6 Pd 2.16088 5.88433 60.4786 0.354617
418 3 Cu 4.30485 6.08663 58.8584 0.355468
419 6 Pd 6.09732 4.14701 58.7052 0.417206
421 6 Pd 4.20021 3.97368 60.5954 0.688918
424 6 Pd 6.19531 5.96401 60.8108 0.365076
62 6 Pd 0.294475 2.32142 62.8678 0.517515