LAMMPS data file via write_data, version 21 Nov 2023, timestep = 500, units = metal

480 atoms
10 atom types

0.2182509323612245 7.961749067638771 xlo xhi
0.23651656356289852 7.9434834364370825 ylo yhi
-5.426348462177572 138.12634846217736 zlo zhi

Masses

1 107.8682
2 196.966569
3 63.546
4 192.217
5 58.6934
6 106.42
7 195.084
8 102.9055
9 101.07
10 44.955908

Atoms # atomic

1 10 7.233297224714265 0.4325598562816249 2.7418149038089883 -1 0 0
4 2 2.092614042365269 1.3275258771447043 2.1765248944295434 0 0 0
241 2 4.55493616867585 0.2519230275097001 2.255726055484466 0 0 0
244 1 5.736774455443241 2.686439046037466 2.0326641909130556 0 0 0
121 1 0.48980399522443235 3.7568472043654357 2.4860808127820633 0 0 0
124 2 1.4587692118585562 6.386666784006623 2.337387662399438 0 0 0
361 1 3.19807607493839 4.032035550361147 2.4987413259135733 0 0 0
364 1 5.786705467425898 5.400573996090573 2.437452440441291 0 0 0
2 1 0.24008298314687196 2.0363272226121545 4.72073812740167 0 0 0
3 1 2.046525160561573 7.837429657748698 4.759113035114067 0 -1 0
5 1 7.865586969879294 7.941985804496132 6.743880768279894 -1 -1 0
8 3 2.10569174184858 2.2060050058255003 6.857738627801149 0 0 0
242 2 3.8881374392855284 2.1641981414034213 4.472110029252866 0 0 0
243 6 5.748804366702593 0.31290133472984993 4.678562477121394 0 0 0
245 2 3.796304947880778 7.907297772640362 6.771854033491982 0 -1 0
248 1 5.968033322110559 2.094658955241465 6.756298355755199 0 0 0
122 6 7.729188828297831 5.984139107583582 4.648101317894092 -1 0 0
123 6 1.9718311662335573 3.9379940070755697 4.856557152277933 0 0 0
125 2 7.764231512382276 4.04850198617688 6.961986094135069 -1 0 0
128 1 2.0250417341683846 5.889152549011684 6.890737092436842 0 0 0
362 1 4.04289915091163 5.974427629523679 4.412109595570687 0 0 0
363 2 5.978452367798221 3.9666568169634866 4.676420453048191 0 0 0
365 1 4.06607961034057 4.123272748294166 6.732022643605315 0 0 0
368 1 5.96751001562566 6.071770105648686 6.689938071952575 0 0 0
6 1 7.936352451058962 2.1605100106749764 8.917122860259939 -1 0 0
7 1 1.9658701032421952 7.8647410369101465 8.955008661873455 0 -1 0
9 6 7.8715932465559835 0.37252521049110865 11.29457965229117 -1 0 0
12 1 2.1514517768522126 2.146256204604027 11.070082310024038 0 0 0
246 1 4.037474433034519 1.9335307336930712 8.982414237768202 0 0 0
247 1 6.056285597595469 0.38544185777835127 9.147281025561876 0 0 0
249 2 4.10359261664112 0.2545737081342071 11.206237713269491 0 0 0
252 10 5.872670664306954 2.4081850970216734 11.290459059410814 0 0 0
126 1 7.6944233048722115 6.028583205287256 8.991257105935091 -1 0 0
127 1 2.199838853396698 4.13481876989372 9.012523778533216 0 0 0
129 1 0.32149083756428865 4.061252663708393 11.164387193727585 0 0 0
132 1 2.1814240831421854 6.158295624958456 11.083615978604751 0 0 0
366 1 4.234275564397249 6.079827396138855 9.00704286461291 0 0 0
367 6 5.879338820743705 3.9893468656810067 9.120911634495076 0 0 0
369 6 4.092359258713982 4.176666976740313 11.22176006465008 0 0 0
372 1 5.993699700315458 6.029182200261674 11.14294095245079 0 0 0
10 3 0.2321391241685587 2.2339866990228185 13.305002437261873 0 0 0
11 2 2.1548063649452622 0.26164613263595154 13.287782401176536 0 0 0
13 6 0.2937039714040995 0.2704323367543688 15.463660035174161 0 0 0
16 1 2.0506391675330518 2.4596187294147613 15.350449740735439 0 0 0
250 2 4.20719943982621 2.1977642438769447 13.45855976151297 0 0 0
251 6 6.074768555742594 0.42087671198867493 13.272705689431206 0 0 0
253 2 3.9502091619510944 0.45651879611605395 15.545673434737715 0 0 0
256 1 6.129607530461781 2.229968148118214 15.48236072102182 0 0 0
130 6 0.21927210763007388 6.231755694939635 13.228656821729636 0 0 0
131 1 2.1938176282202733 4.2184840399806856 13.225618550136897 0 0 0
133 2 7.905420047863599 4.355695349777066 15.193392548305003 -1 0 0
136 10 2.21216310452544 6.199512022885975 15.389762172284161 0 0 0
370 6 4.191028942268828 6.213709197339516 13.374545459464294 0 0 0
371 6 6.1221913525174205 4.262088218091935 13.387753192407086 0 0 0
373 2 4.120623489216736 4.268188764891656 15.451504006154185 0 0 0
376 10 5.951433145475754 6.310817534848195 15.497947172089003 0 0 0
14 1 0.41489315554233075 2.2637840202420594 17.521798406965328 0 0 0
15 6 2.1900748912153167 0.4487067881144534 17.6040662219862 0 0 0
17 2 7.926842333785347 0.23930468436386665 19.67118185161171 -1 0 0
20 10 2.037722246094078 2.32396927769184 19.704634152810918 0 0 0
254 2 3.97144638768519 2.384695118156639 17.665310925111314 0 0 0
255 6 6.031270836391734 0.3620835531150145 17.588372430733486 0 0 0
257 1 4.147854116404233 0.44026234976938855 19.59422750675124 0 0 0
260 1 6.272535510370329 2.4140709347248532 19.675276416296786 0 0 0
134 2 7.81273095366541 6.2009519553829575 17.553351391289866 -1 0 0
135 6 2.1715419622496173 4.283308815338103 17.536648303064265 0 0 0
137 3 7.903702541756903 4.384455917637568 19.563979418086266 -1 0 0
140 10 2.2301269378510526 6.046344925924596 19.54337194439229 0 0 0
374 7 4.165332771571854 6.137002318741383 17.547773328173683 0 0 0
375 1 6.13611883564635 4.172238092569646 17.465403516099748 0 0 0
377 2 4.11417930967284 4.073869945860407 19.7084635332335 0 0 0
380 6 5.909047415621883 6.043908892087449 19.724693327634025 0 0 0
18 6 7.694877753696538 2.211331478907158 21.96791893815541 -1 0 0
19 2 2.234296648313266 0.3818696241350686 21.781361876176444 0 0 0
258 6 4.126182607783632 2.350402246414456 21.822777904960297 0 0 0
259 1 5.792757206111768 0.39751459746133216 21.79952176185517 0 0 0
138 1 7.848187066343131 6.303621403140418 21.828978323731405 -1 0 0
139 2 1.9569624319925305 4.2120618037952156 21.659519124671128 0 0 0
378 6 4.01612326560243 6.055050074850607 21.820609261120946 0 0 0
379 1 6.053283993914029 4.1929845885545785 21.991774649940886 0 0 0
21 2 0.24692657175064134 0.5304521334991219 24.085697278008226 0 0 0
24 1 2.2305732092403767 2.3902419741032865 23.932608152660194 0 0 0
261 2 3.892641086066098 7.887973143404319 23.923679523381608 0 -1 0
264 10 5.788015824207275 2.0801648236144414 24.10980950007254 0 0 0
141 1 7.8089283315212725 4.117155761031344 24.098364234999387 -1 0 0
144 1 1.866304934497206 6.021976858316973 23.96983172798048 0 0 0
381 2 4.059315966710895 4.3908117329844805 23.950283227668915 0 0 0
384 6 6.036118215488937 6.281042320022815 24.089486659146026 0 0 0
22 1 0.27211793647937244 2.152400227132652 26.471236742171087 0 0 0
23 1 2.2656448207412567 7.924715632788252 26.219559769554674 0 -1 0
262 6 4.207137798242307 2.208966864980065 26.14485075117819 0 0 0
263 2 6.087723663183226 7.897182341788164 26.34642656810275 0 -1 0
142 6 7.936766103926679 6.072671996187552 26.11335513972964 -1 0 0
143 6 2.2106851284853133 4.161290272531895 26.345798656370086 0 0 0
382 10 4.056653631963117 5.968952673065554 26.18386939958348 0 0 0
383 2 6.138512540548112 4.081591286068967 26.176956261812514 0 0 0
25 3 0.2576600089609338 7.740042973296995 28.178163326196447 0 -1 0
26 7 7.95601546169013 2.067300140842444 29.79125186938353 -1 0 0
27 3 2.161515764036997 0.27252620546600154 29.973558472635425 0 0 0
28 3 2.165760389360581 2.1949172315873122 28.27450745149079 0 0 0
265 7 4.1722197907217575 0.28937751082453006 28.19516190971862 0 0 0
266 3 3.8585118186328127 2.220948291676785 30.025567700259522 0 0 0
267 5 6.033293742212836 7.888911630393301 29.922314918494116 0 -1 0
268 3 6.031421578635813 2.2298816683442246 28.313494516547593 0 0 0
145 3 0.36816221213968314 4.103006007698624 28.137621360532577 0 0 0
146 7 7.835510317229801 5.9677836556358 30.027052626463536 -1 0 0
147 3 2.272451134720639 4.1846686290129975 30.039428804965745 0 0 0
148 6 2.216733437679266 6.014361272661406 28.384055095585403 0 0 0
385 3 4.119633561136051 4.198365412955708 28.34445584873881 0 0 0
386 3 4.456292192928084 6.09278871620749 29.877425117491832 0 0 0
387 3 6.223802942706143 4.152390735675716 29.915125115368113 0 0 0
388 5 5.990824020383341 6.007328897768664 28.121730094458165 0 0 0
29 3 0.2822663007284889 7.8843412821339856 31.649669909940037 0 -1 0
30 3 7.925061449057901 2.287490162607853 33.29570204441109 -1 0 0
31 3 2.0526588098433014 0.2753399967443783 33.1671682364238 0 0 0
32 3 2.0898411872463836 2.139124914521508 31.641184145127333 0 0 0
269 3 4.192820879054808 0.3048300401238431 31.707421707238375 0 0 0
270 5 4.144353434481335 2.145759712209226 33.207042879245144 0 0 0
271 7 6.07098888392032 7.9307971847706105 33.37867445491509 0 -1 0
272 5 5.946615690151106 2.0918055357690397 31.562780146216262 0 0 0
149 3 0.36148564651054976 3.951631110270241 31.612287544923866 0 0 0
150 3 0.25666058964502014 5.87225379658515 33.3377703748777 0 0 0
151 3 2.134126737706187 4.12636416458324 33.29795251863164 0 0 0
152 3 2.202745223272041 5.8552455399312855 31.64401458073329 0 0 0
389 3 4.106120209466893 4.177020987180271 31.537131538105875 0 0 0
390 3 4.004410054781199 6.189815775201221 33.243830075239565 0 0 0
391 7 6.096800791396344 3.9900052651171474 33.243004874501004 0 0 0
392 5 5.945216363214232 6.013424923864954 31.790696597361823 0 0 0
33 3 0.3633391374750499 0.36974375742740223 35.09388147026574 0 0 0
36 2 2.274339224448146 2.0212635288504384 34.86699214727627 0 0 0
273 5 4.092586027489245 7.900462111423159 34.90877648316987 0 -1 0
276 7 5.863944553090709 2.156027399246782 35.23385475590709 0 0 0
153 5 7.90788850980711 3.8860404900732735 35.27717260622514 -1 0 0
156 2 2.122897243626056 5.976539474299527 34.9868776307759 0 0 0
393 3 4.043537340505807 4.155576218052334 34.92172830834278 0 0 0
396 10 6.088243994634469 5.865180240667848 35.07671494279773 0 0 0
34 4 7.84139505891574 2.018457752210483 37.11313992092227 -1 0 0
35 3 1.99725755867658 7.839801780962085 36.80514516573267 0 -1 0
37 8 0.24673125805377616 7.702409335126699 38.90945856878299 0 -1 0
40 7 2.133245058952402 2.082059865947353 38.901592502637314 0 0 0
274 7 4.046369617423636 1.9424025506439417 37.07592670620888 0 0 0
275 6 6.00276517806784 7.7605687613295595 36.89465095398928 0 -1 0
277 10 4.05575628380225 7.732540820789209 39.024298182580566 0 -1 0
280 4 6.068870233425725 2.0162722891781133 39.183463225602374 0 0 0
154 8 0.2973495249565662 5.943514564011519 37.030340490645855 0 0 0
155 7 2.1252908415483436 4.001564669991445 36.920210364469625 0 0 0
157 10 7.954047600512254 3.9516017809931907 38.806586476387245 -1 0 0
160 8 2.173805557617783 5.814081746012995 39.02867935610323 0 0 0
394 7 4.11346207693069 5.815980217432633 36.864107074972345 0 0 0
395 8 5.994668562393006 3.9673934314357906 37.14908531820938 0 0 0
397 9 4.100713101413792 4.010033775159288 39.017528846242605 0 0 0
400 8 6.026934158000662 5.827521392924562 39.08416070603843 0 0 0
38 8 0.2997379623243494 1.9780801586527519 40.84716070678181 0 0 0
39 9 2.1157209066570513 7.815872078374184 40.85864711777748 0 -1 0
41 8 7.84981541491894 7.839968680377975 42.81078306249781 -1 -1 0
44 4 2.1039986474829324 1.8956687593472201 42.83815128524564 0 0 0
278 4 4.049433936887279 2.034449251115812 40.84774731336995 0 0 0
279 5 6.124928157531107 7.854686240495247 40.97640155046629 0 -1 0
281 9 4.037740257862129 7.724235256238098 42.69633612973781 0 -1 0
284 8 5.935975718760767 2.0393226122695367 42.65229614113231 0 0 0
158 4 7.864872517482873 5.843563737286905 41.00316183743562 -1 0 0
159 5 2.2434243686898285 3.849146520403217 40.98110974611683 0 0 0
161 9 0.23989494289167998 4.012882560888553 42.64504281268879 0 0 0
164 4 2.129732767112806 5.830179148497482 42.7598267804881 0 0 0
398 9 4.093768799532791 5.653346511715454 41.00059627594192 0 0 0
399 9 5.946583187094898 3.923928746812325 40.936647911581304 0 0 0
401 9 4.183268949798352 3.854822269485025 42.78984291296946 0 0 0
404 4 6.04924037846426 5.875888317829869 42.80786717130041 0 0 0
42 9 7.9607803949533515 1.9398510470595165 44.623740801014975 -1 0 0
43 5 2.1508716854365417 7.657887837150185 44.62665413487116 0 -1 0
45 4 0.2258459838613689 7.619981258663745 46.43442350104675 0 -1 0
408 4 6.101242327770473 5.850045576815205 46.47705999548164 0 0 0
405 9 4.155114607743345 3.9465964166703404 46.34408753489292 0 0 0
48 9 2.2177956757576363 1.9257182559603911 46.32789088322959 0 0 0
282 4 4.230668265317245 1.9185809934966502 44.698636884130586 0 0 0
283 9 5.98248450814525 7.7943889406711735 44.54187965704148 0 -1 0
285 4 4.15031331088759 7.6867592931705175 46.513952537938124 0 -1 0
403 9 6.149255332340484 3.9279446546730408 44.57005578423968 0 0 0
402 8 4.172464814023272 5.882789818736546 44.70281180060571 0 0 0
288 8 6.10887745327674 1.9501017076932532 46.35185673596946 0 0 0
162 4 0.3223804603168318 5.749604848374162 44.62151621808381 0 0 0
163 4 2.158236774238563 3.8674118508817434 44.520782811763674 0 0 0
165 9 0.3057879100275851 3.8391997959647357 46.48245087512843 0 0 0
168 8 2.258382578085824 5.685524990140674 46.51916467586535 0 0 0
287 9 6.144258228683141 7.717764205033053 48.31688475688699 0 -1 0
166 5 7.949105747504266 5.6526076870459585 48.227212991938266 -1 0 0
167 8 2.2745937432904686 3.8635543013060545 48.26150096635363 0 0 0
46 8 0.2859015950868964 1.88973006763249 48.250441171081015 0 0 0
406 8 4.161200255797731 5.795823084818313 48.36033999273975 0 0 0
286 8 4.197643511139616 2.0661767521290333 48.37856734048693 0 0 0
407 8 6.173125908991324 3.783666977179219 48.26540006439299 0 0 0
47 10 2.211938810366356 7.691236316693948 48.347722108473235 0 -1 0
49 5 0.3005275467299017 7.799572654926487 50.03017690829518 0 -1 0
50 7 0.3802639382477293 1.8932133722339755 51.87186404837463 0 0 0
51 5 2.283908474311083 7.791175502979735 51.806693428653 0 -1 0
52 5 2.3113498727133166 1.9557145057174652 50.12291301461966 0 0 0
289 4 4.178035937867133 7.833370466481313 50.12404598830102 0 -1 0
290 7 4.150565772939376 2.1024278644684795 51.82795568403908 0 0 0
291 3 6.141456848292197 7.828066749429018 52.047517039503795 0 -1 0
292 5 6.070645494478981 1.9070243708095183 50.04659480210118 0 0 0
169 7 0.27156238930193755 4.016610235450704 50.07777240285743 0 0 0
170 7 0.23364855731539003 5.950620603200831 51.975522008024456 0 0 0
171 10 2.217186342258441 3.94547964320154 51.89995470965296 0 0 0
172 5 2.220514906452911 5.768266121014547 50.209459753537736 0 0 0
409 5 4.106262665300655 3.9091678488378676 49.942986548883205 0 0 0
410 4 4.134465880149308 5.9250371333277405 51.76551818710052 0 0 0
411 10 5.951638470992554 3.906761447214564 51.98552488612935 0 0 0
412 5 6.215253927952649 5.776297156763785 50.08332129520773 0 0 0
185 2 7.908578342231435 3.8577275987979256 64.78230626182032 -1 0 0
423 3 6.236799571288152 3.7964245094054845 62.589243619748814 0 0 0
183 2 2.2488186764352114 3.8900094970765933 62.647067114169204 0 0 0
428 6 6.031727129493163 5.803590088313359 64.92300509707061 0 0 0
188 6 2.2796778373111004 5.643561062734602 64.78703281267418 0 0 0
425 7 4.368695050298653 3.7419546919055153 64.75826803677519 0 0 0
182 1 0.2407544774635676 5.712483147760727 62.98192887632358 0 0 0
422 10 4.268527134905032 5.942296767855816 62.940841113132734 0 0 0
53 3 0.30735820631557936 7.842678851708461 53.7539621385296 0 -1 0
54 3 0.2287983018950977 1.8619624073957695 55.43829623636972 0 0 0
55 10 2.2780479748859284 7.782444484920002 55.62987761257939 0 -1 0
56 7 2.3163665555595476 1.96543458909133 53.80350549713891 0 0 0
293 5 4.199049395367622 7.822355227850816 53.69773017038482 0 -1 0
294 5 4.132665173426874 2.0131799099176604 55.49905080618985 0 0 0
295 5 6.172698084906239 7.640642665279548 55.26776394048655 0 -1 0
296 5 6.12846671096597 1.904015178721031 53.85804714495106 0 0 0
173 7 0.2588670792864325 3.891315296070838 53.70392569566207 0 0 0
174 4 0.25291538106078065 5.783404885958611 55.359641361116644 0 0 0
175 5 2.1202060618062815 4.0366838996743635 55.537834020539684 0 0 0
176 4 2.2650834159248037 6.013112994665035 53.64606183194885 0 0 0
413 4 4.057871893042115 3.980183494399041 53.810407959170256 0 0 0
414 5 4.190217866692456 5.814745068893469 55.34995885955245 0 0 0
415 5 6.079115558982693 3.8528566934706467 55.35293238269712 0 0 0
416 5 5.839444457909561 5.793287170562607 53.723340752476105 0 0 0
57 5 7.870759425733068 7.617245675135294 57.00947126358745 -1 -1 0
60 3 2.061792646314939 2.0980699143943347 56.923664365315354 0 0 0
297 7 4.4140562657219515 7.707408194185286 57.043479199615966 0 -1 0
300 8 6.208159061269731 1.9910597786627195 57.09518094613345 0 0 0
177 5 7.927555330983944 4.014602162710869 57.17472813483052 -1 0 0
180 3 2.0886439742021503 5.748839467913218 57.263440088587274 0 0 0
417 4 4.198304831603754 4.066584908874011 57.040061234555345 0 0 0
420 5 6.181074673469119 5.622648331756832 56.986447237177785 0 0 0
58 3 0.33543371588362625 2.06163508612196 58.58452381074085 0 0 0
59 7 2.102699562852409 7.831067598372617 58.53330438790562 0 -1 0
61 7 0.24067781789710507 7.714216700233158 60.66131790400074 0 -1 0
64 6 2.2282935283967036 1.871847459180195 60.652448723444806 0 0 0
298 10 4.089153538842689 1.8782177127648405 58.76255570811159 0 0 0
299 3 6.109669808662813 7.612556833365103 58.87604188795632 0 -1 0
301 7 4.150896441923393 7.359777089654639 60.80755848573111 0 -1 0
304 6 6.078268827974535 1.931830733824285 60.74843265583213 0 0 0
178 5 7.8583741741603 5.892169440008339 58.88584837714602 -1 0 0
179 8 2.2458231091357073 3.8077478930149877 58.66894375880504 0 0 0
181 6 7.951308108993057 3.8271086701012926 60.694417372710234 -1 0 0
184 10 1.9414807166440151 5.743796094386261 60.455689912365045 0 0 0
418 5 4.228127288653628 5.93178267707916 58.73540779776873 0 0 0
419 8 6.1245903479694075 3.8588250524017282 58.84826601669849 0 0 0
421 7 4.172693313478517 3.944506962243638 60.694278780634264 0 0 0
424 3 6.228984831597897 5.864704934990533 60.76253733435003 0 0 0
62 1 7.950635795487668 1.9555389060269905 62.81760860168096 -1 0 0
63 6 2.1493490290422175 7.737508832520099 62.800146882835264 0 -1 0
65 1 0.36966731633423355 7.6979771205860805 64.79939173671869 0 -1 0
68 2 2.3582687341311614 1.9885555724799209 64.76453276144052 0 0 0
302 10 4.161874543929281 1.8603256831206123 62.82936003312061 0 0 0
303 6 6.141334992758081 7.646885977830904 62.73354186617702 0 -1 0
305 3 4.080693016834938 7.831005148712426 65.02123854129037 0 -1 0
308 3 6.067358842697978 1.7870469329445569 64.90006803136158 0 0 0
66 1 0.3365146473657264 1.9949764253060267 66.87160891644545 0 0 0
67 1 2.2461280748693255 7.896805505267151 66.83470040835826 0 -1 0
69 1 0.391539997246081 0.4024611881516124 69.16578818287158 0 0 0
72 3 2.161680342947147 2.3556616266949693 68.89265429671214 0 0 0
306 6 4.151066632387224 2.145136296570329 67.01477414655034 0 0 0
307 2 6.035543950588675 7.80106182339275 66.99934604800494 0 -1 0
309 2 4.011634837993487 0.3794376675179258 68.95705538611702 0 0 0
312 5 6.194738882238557 2.058209067097982 68.95052257603011 0 0 0
186 1 0.3077493962238692 5.80870598470981 66.95473911114902 0 0 0
187 3 2.1593511825334395 3.8334568066854198 66.69734577005751 0 0 0
189 7 0.3004977695869974 3.9181373638975243 68.93131405307923 0 0 0
192 10 2.394489443817181 5.7015918313969625 69.08067667426592 0 0 0
426 2 4.0307075406800426 5.842524136025743 66.96138990160283 0 0 0
427 10 6.020989263623246 3.79887714852486 66.96252330117144 0 0 0
429 7 4.263653087277827 3.9113245455770813 69.0699960468657 0 0 0
432 6 6.088167393838523 6.02632732205796 69.10145499224355 0 0 0
70 6 7.878079073114746 2.168185622146927 71.04128831460532 -1 0 0
71 3 2.309475814289542 0.2591159286357104 71.06395807084441 0 0 0
73 3 0.25025538007860687 0.30795893703800714 72.94741360842792 0 0 0
74 7 0.24085315348683012 1.982790060501669 75.00018918251199 0 0 0
75 10 2.124734894544534 0.2775684354227287 75.08749852561184 0 0 0
76 2 1.9968541809573879 2.2123235500807525 72.95065228357191 0 0 0
310 3 4.046859659606042 2.140173257089979 71.03210839270466 0 0 0
311 10 5.990187763395893 0.2742836382995981 71.0801097098195 0 0 0
313 7 4.036332364300939 0.3991959603510982 72.97943249257357 0 0 0
314 7 4.164338769535862 2.024364728022288 75.21872783733862 0 0 0
315 3 6.241934851023801 7.888218322425801 75.03508800291519 0 -1 0
316 7 6.0955488489588525 2.294815930980905 72.96533883444913 0 0 0
190 2 0.29294186248495413 6.0516124610476325 71.08663382762529 0 0 0
191 6 2.2585110806269233 3.9082403728378474 71.06546530040421 0 0 0
193 5 0.22263467120760885 4.128562402885951 73.19007250452749 0 0 0
194 6 7.837087837933387 6.058759565675426 75.1834344494452 -1 0 0
195 6 2.193233494342251 4.05526447222902 75.13257613505094 0 0 0
196 2 1.9596718535924194 6.043384078309023 73.20946007240225 0 0 0
430 7 4.023651750732318 5.931227914350622 71.15837233235027 0 0 0
431 10 6.127419553035418 4.003067150906611 70.87371208652263 0 0 0
433 10 4.081739331707523 4.00265996291302 73.20816717258421 0 0 0
434 7 4.2587383472372125 6.091923466776809 75.1022865568343 0 0 0
435 7 6.100439937181665 4.042518228429367 75.20900747032013 0 0 0
436 2 6.161523633047821 6.006459782015756 73.011829611479 0 0 0
77 5 0.275156376954495 0.23727932020449094 77.12131066954836 0 0 0
78 8 0.3126399790794179 2.0949980053254773 79.04434172961918 0 0 0
79 5 2.0979195223857854 0.2454462076428073 78.97966009655381 0 0 0
80 7 2.179588016815465 2.2392940088146798 77.1559999751228 0 0 0
317 10 4.296274133652622 0.33551626008676805 77.2407765873896 0 0 0
318 6 4.13152110833662 2.296955508527551 79.10320369735885 0 0 0
319 2 6.196110472317651 0.25684820822673365 79.04991385589533 0 0 0
320 6 6.195724849205458 1.983860171084971 77.2302562669045 0 0 0
197 10 0.3705500904681155 4.085686884480159 76.97404407022869 0 0 0
198 5 0.42141493958643383 6.228691521101587 79.09370985421991 0 0 0
199 3 2.126221137770644 4.381446596921979 79.03231930047143 0 0 0
200 7 2.250964204122836 6.106564544852283 77.09064747142995 0 0 0
437 10 4.064587649869872 4.177952741571751 77.04739168589377 0 0 0
438 8 4.237537656569346 6.10233730673734 79.017509243667 0 0 0
439 2 6.231114020237117 4.186810842488837 79.10235321327987 0 0 0
440 8 6.108547253911214 6.174282420339606 77.21513190692305 0 0 0
81 3 0.32631087724506475 0.29194912298408526 80.97174338672225 0 0 0
82 8 7.9485455017817195 2.1812170445539723 82.9300088775028 -1 0 0
83 8 2.132946456448834 0.3088132182420251 83.09855660685676 0 0 0
84 10 2.183991384964367 2.3248175160268487 80.80878797345787 0 0 0
321 6 4.073806377474838 0.28122810502180035 80.95458034502778 0 0 0
322 7 4.059943384877833 2.2617114561118696 82.8583754338045 0 0 0
323 10 5.967611475214364 0.5397043138338427 82.89066104565198 0 0 0
324 5 6.0576367455919105 2.2664076033633367 80.80418850899287 0 0 0
201 7 0.34372205108336007 4.076187754812526 80.8958595708247 0 0 0
202 5 0.23735632220794217 6.026872780963843 83.03776393014405 0 0 0
203 6 2.074120555008515 4.189948018431521 83.07108321895872 0 0 0
204 1 2.1259700030147686 6.303461122525713 81.07484222639566 0 0 0
441 7 3.9394128120022955 4.3159547902870905 80.98013695551481 0 0 0
442 5 4.1289355647461345 6.1661712183552355 82.89330562598134 0 0 0
443 10 6.224283367144148 3.955506242339689 82.81172224147872 0 0 0
444 7 6.140418479230913 6.064574821152174 80.95931328646522 0 0 0
85 5 0.30219269829764817 0.26967659808017336 84.8554920296962 0 0 0
86 9 0.2808485246305771 2.1370533399808185 86.83851162533769 0 0 0
87 4 2.274715669663125 0.40439210156494204 86.9189635199407 0 0 0
88 9 1.978538625979522 2.1904001292789914 84.91945337451106 0 0 0
89 5 0.2957338855569435 0.29960267740595914 88.76176208071153 0 0 0
92 9 2.1644513644902066 2.1949202526348146 88.76512079919107 0 0 0
325 4 4.0526414705602365 0.4668236590984435 84.88199038101833 0 0 0
326 5 4.094697695018365 2.2804553129993943 86.83895384240915 0 0 0
327 8 5.959174361720592 0.282191043603768 86.72066332446063 0 0 0
328 8 6.0796824034261245 2.2284230741936932 84.99996288944746 0 0 0
329 9 4.074691199071362 7.917499166992975 88.69329325084716 0 -1 0
332 9 6.121649683924094 2.23011513626445 88.64447754367302 0 0 0
205 8 0.2546728256457838 4.207112581559869 84.94230013299816 0 0 0
206 10 0.3096525880604935 6.093812001077392 86.59828225256048 0 0 0
207 7 2.193065378786632 4.127877046772945 86.82364354729035 0 0 0
208 8 2.2464401868260815 6.14679713071624 84.9290409902461 0 0 0
209 4 0.28846364338169644 4.001154700159318 88.88157344923273 0 0 0
212 8 2.214223285635047 6.118888995646322 88.66012675269938 0 0 0
445 10 4.095515309796287 4.147805648863631 84.97886868948014 0 0 0
446 8 4.117599930819129 6.1703499210510575 86.76583057156105 0 0 0
447 8 6.066461158675434 4.103266403048009 86.72566917222804 0 0 0
448 7 5.998180285820046 6.095489147328169 84.75562976844824 0 0 0
449 4 4.189895183095479 4.111076154300138 88.60892483790718 0 0 0
452 9 6.105888529669016 6.050185706556005 88.76549871122205 0 0 0
90 8 7.952202329671863 2.138542935633896 90.65229524929427 -1 0 0
91 4 2.1176161535008107 7.895723415612853 90.50977492329437 0 -1 0
93 10 0.32174614728069295 7.9332476265157785 92.45466333610933 0 -1 0
96 5 2.2644269048140138 2.164395905746728 92.38173612320082 0 0 0
330 4 4.0797766696844775 2.086387403004032 90.54382856786454 0 0 0
331 4 6.144269921924673 0.2649922706342838 90.45111862940128 0 0 0
333 9 4.016526426724489 0.2519188298350512 92.46131466697868 0 0 0
336 8 6.044108519271605 2.3366736566173216 92.43579459947424 0 0 0
210 8 0.26763278277489955 6.039686436933826 90.5450736916803 0 0 0
211 4 2.233370093195079 4.088718304240558 90.55902153058646 0 0 0
213 10 0.3255443298994559 4.096419050130556 92.42226435102758 0 0 0
216 5 2.134374572794626 5.939172479072236 92.35346701721953 0 0 0
450 9 4.169123294582615 5.943469002584456 90.63869848725554 0 0 0
451 9 6.042131092239391 4.1381471249119555 90.57748533938458 0 0 0
453 9 4.036020491821457 4.144422193675561 92.24589320831413 0 0 0
456 4 5.952715839008633 6.010862162677812 92.46951650193202 0 0 0
94 8 7.959428527276353 2.12977772066587 94.34429829831782 -1 0 0
95 4 2.18643239834504 0.2543305172617355 94.3048673118557 0 0 0
97 9 0.2298521759970196 0.38390980440799094 96.3236107039777 0 0 0
100 9 2.209269940837325 2.0747848941735265 96.3244304786171 0 0 0
334 9 4.082713813189203 2.289448976277157 94.32442559285693 0 0 0
335 4 5.976406024028218 0.3230223133450766 94.35235628567727 0 0 0
337 9 4.076745648410341 0.351263284825672 96.15214198948526 0 0 0
340 9 5.946823079616859 2.1545471433539256 96.24826040886043 0 0 0
214 5 0.24684466062927485 6.180261336182313 94.41754935850585 0 0 0
215 7 2.256695557571936 4.199651985552935 94.28095389480765 0 0 0
217 10 0.3289195941210187 4.1730398527485955 96.10712978656368 0 0 0
220 4 2.229745023137456 6.232724786766221 96.21160640551281 0 0 0
454 9 4.132114804360761 6.032648544506692 94.4068999387945 0 0 0
455 7 5.9893703619788745 4.191489167390733 94.32786225828272 0 0 0
457 8 4.160085356083954 4.195923320580478 96.29426324276125 0 0 0
460 9 5.912918715945711 6.137738733744468 96.30377910524977 0 0 0
98 4 0.2356749278874823 2.2600152025581677 98.05421181208413 0 0 0
99 9 2.1229225050732294 0.24903502133514685 98.12321097212798 0 0 0
338 4 4.1185317570001985 2.1792802540481286 98.0868948436782 0 0 0
339 8 6.0807361593855855 0.23857560696295543 98.13712992138035 0 0 0
218 9 7.89406904593293 6.0975477128259055 98.13784426550964 -1 0 0
219 8 2.1767365140557144 4.027265373395812 98.12691656403408 0 0 0
458 4 4.107912985961853 6.116260800212165 98.02669321314184 0 0 0
459 9 6.016211192364295 4.176673005374427 98.1363208638142 0 0 0
101 4 0.2513604931089178 0.34915421393546847 99.93880366052598 0 0 0
102 9 7.864324508211022 2.297243543013149 101.81845792303041 -1 0 0
103 4 2.18477834574475 0.30076382764391946 101.86364518716245 0 0 0
104 9 2.1196283366120436 2.2035229325480126 100.07349895914432 0 0 0
341 4 4.073454244076112 0.2996159707862577 99.92131770567576 0 0 0
342 9 3.9896956824566683 2.345540525172018 101.95991530744642 0 0 0
343 9 6.017943796818351 0.2972842295881958 101.89320549229407 0 0 0
344 8 5.940041483978305 2.292648000435796 100.03576221797982 0 0 0
221 4 0.25573995991405524 4.240953745917574 99.86971431109032 0 0 0
222 4 7.912151443525259 6.064487246527867 101.79586482476948 -1 0 0
223 4 2.014253873731575 4.187850664559194 101.7873067396564 0 0 0
224 9 2.1528365528346196 6.063881948114833 99.96426046952838 0 0 0
461 9 4.084977491543357 4.2401822872242985 99.98822771354749 0 0 0
462 9 4.089387610659983 6.132740036319488 101.83354690177035 0 0 0
463 4 5.921498107308036 4.105562235132629 101.89409329358203 0 0 0
464 9 5.862344231639661 6.043358147253873 100.0019057413935 0 0 0
105 9 7.91198663296678 0.3840605835078613 103.75751697891674 -1 0 0
106 8 7.7927493780406625 2.1680979121508814 105.67214684648744 -1 0 0
107 4 2.0325623186369834 0.327514121117388 105.65145750112707 0 0 0
108 4 2.0794802797665897 2.246260445769068 103.70520049665213 0 0 0
345 9 3.9198631298367403 0.4250450739405047 103.79619126212671 0 0 0
346 4 4.100913914382566 2.3096740960674036 105.49131231502294 0 0 0
347 9 5.90538615270124 0.3533437067896157 105.56109440968163 0 0 0
348 9 6.0555355738745575 2.1484844848939675 103.75377471564269 0 0 0
225 9 7.8058346841485236 4.148597938817043 103.72034713312787 -1 0 0
226 8 7.818789096923 6.142873272033112 105.59611678286593 -1 0 0
227 7 2.002405150104662 4.180581675113209 105.58151897084596 0 0 0
228 4 2.0430714253442277 6.1651834171767055 103.68595966358981 0 0 0
465 4 3.8902147144887507 4.281785289634167 103.6950892772726 0 0 0
466 4 4.004109090849834 6.201200302415605 105.53222151440059 0 0 0
467 4 5.884885611119447 4.115870954626926 105.50049006801348 0 0 0
468 9 5.889607208712205 6.014314351069504 103.68734496178168 0 0 0
109 5 7.71980995646102 0.3333264147300031 107.41380425880912 -1 0 0
110 8 7.6914411667168405 2.479502635436072 109.56397169578987 -1 0 0
111 10 1.6799974924822423 7.900810371633122 109.46807679779765 0 -1 0
112 7 1.9212263277569486 2.2727321056371212 107.4961929773482 0 0 0
349 10 3.9673158445709813 0.47872921801800433 107.67552325894863 0 0 0
350 7 4.052300622515108 2.2686213385600564 109.64160176901632 0 0 0
351 2 6.034742063885449 0.3725079968362163 109.72450137930966 0 0 0
352 8 5.861516065713355 2.1206405624023317 107.6799146370035 0 0 0
229 10 7.535960327558257 4.13459984336289 107.42149527399104 -1 0 0