LAMMPS data file via write_data, version 21 Nov 2023, timestep = 379, units = metal

480 atoms
10 atom types

0.21019447209620665 7.969805527903792 xlo xhi
0.21019447209774866 7.9698055279022455 ylo yhi
-3.6700663466819963 136.3700663466821 zlo zhi

Masses

1 107.8682
2 196.966569
3 63.546
4 192.217
5 58.6934
6 106.42
7 195.084
8 102.9055
9 101.07
10 44.955908

Atoms # atomic

1 1 7.969805527903785 7.969805527902236 4.249846173891701 -1 -1 0
2 1 7.969805527903785 2.1500972360488673 6.353730509933352 -1 0 0
3 1 2.150097236048098 7.9698055279022375 6.353730509933352 0 -1 0
4 1 2.1500972360480985 2.150097236048868 4.249846173891701 0 0 0
5 1 7.969805527903783 7.969805527902236 8.45293039235051 -1 -1 0
8 1 2.1500972360480994 2.1500972360488673 8.45293039235051 0 0 0
241 1 4.089999999999993 7.9698055279022375 4.249846173891701 0 -1 0
242 1 4.089999999999992 2.150097236048867 6.353730509933352 0 0 0
243 1 6.029902763951888 7.9698055279022375 6.353730509933352 0 -1 0
244 1 6.029902763951891 2.150097236048867 4.249846173891701 0 0 0
245 1 4.089999999999993 7.9698055279022375 8.45293039235051 0 -1 0
248 1 6.029902763951888 2.150097236048867 8.45293039235051 0 0 0
121 1 7.969805527903786 4.089999999999991 4.249846173891702 -1 0 0
122 1 7.9698055279037865 6.0299027639511165 6.353730509933352 -1 0 0
123 1 2.1500972360480994 4.08999999999999 6.353730509933352 0 0 0
124 1 2.1500972360481003 6.029902763951115 4.249846173891702 0 0 0
125 1 7.969805527903783 4.08999999999999 8.452930392350506 -1 0 0
128 1 2.150097236048098 6.029902763951115 8.45293039235051 0 0 0
361 1 4.0899999999999945 4.08999999999999 4.249846173891702 0 0 0
362 1 4.089999999999992 6.0299027639511165 6.353730509933352 0 0 0
363 1 6.029902763951888 4.08999999999999 6.353730509933352 0 0 0
364 1 6.029902763951888 6.029902763951111 4.249846173891704 0 0 0
365 1 4.089999999999993 4.08999999999999 8.45293039235051 0 0 0
368 1 6.029902763951888 6.029902763951115 8.45293039235051 0 0 0
6 1 7.9698055279037865 2.1500972360488673 10.530322311602783 -1 0 0
7 1 2.1500972360480994 7.969805527902236 10.530322311602793 0 -1 0
9 1 7.969805527903783 7.969805527902234 12.597749421586439 -1 -1 0
12 1 2.1500972360480994 2.150097236048869 12.597749421586457 0 0 0
246 1 4.089999999999992 2.1500972360488677 10.530322311602797 0 0 0
247 1 6.029902763951888 7.969805527902234 10.530322311602783 0 -1 0
249 1 4.089999999999992 7.969805527902234 12.597749421586453 0 -1 0
252 1 6.029902763951891 2.15009723604887 12.597749421586439 0 0 0
126 1 7.969805527903783 6.0299027639511165 10.530322311602783 -1 0 0
127 1 2.1500972360480985 4.089999999999991 10.530322311602783 0 0 0
129 1 7.969805527903782 4.089999999999987 12.597749421586439 -1 0 0
132 1 2.150097236048098 6.0299027639511165 12.597749421586453 0 0 0
366 1 4.089999999999992 6.029902763951115 10.530322311602797 0 0 0
367 1 6.029902763951888 4.089999999999992 10.530322311602783 0 0 0
369 1 4.089999999999992 4.089999999999989 12.597749421586453 0 0 0
372 1 6.029902763951894 6.0299027639511165 12.597749421586457 0 0 0
10 1 7.969805527903778 2.15009723604888 14.654904681430628 -1 0 0
11 1 2.1500972360481065 7.969805527902231 14.654904681430635 0 -1 0
13 2 7.969805527903752 7.969805527902207 16.741636100916455 -1 -1 0
16 2 2.150097236048125 2.1500972360489032 16.741636100916455 0 0 0
250 1 4.089999999999991 2.150097236048876 14.654904681430631 0 0 0
251 1 6.0299027639519 7.969805527902231 14.654904681430638 0 -1 0
253 2 4.089999999999966 7.969805527902202 16.74163610091644 0 -1 0
256 2 6.029902763951921 2.1500972360488935 16.74163610091644 0 0 0
130 1 7.969805527903778 6.029902763951121 14.654904681430631 -1 0 0
131 1 2.150097236048105 4.08999999999998 14.654904681430631 0 0 0
133 2 7.969805527903761 4.089999999999956 16.741636100916434 -1 0 0
136 2 2.15009723604813 6.029902763951143 16.741636100916455 0 0 0
370 1 4.089999999999988 6.029902763951127 14.654904681430638 0 0 0
371 1 6.029902763951899 4.089999999999981 14.654904681430628 0 0 0
373 2 4.089999999999962 4.089999999999962 16.741636100916455 0 0 0
376 2 6.029902763951918 6.029902763951153 16.74163610091644 0 0 0
14 2 7.969805527903742 2.1500972360489046 18.8866160558597 -1 0 0
15 2 2.1500972360481265 7.969805527902191 18.886616055859708 0 -1 0
17 2 7.969805527903749 7.969805527902195 21.029282391406078 -1 -1 0
18 2 7.96980552790375 2.150097236048912 23.180126552867918 -1 0 0
19 2 2.1500972360481345 7.969805527902203 23.18012655286793 0 -1 0
20 2 2.1500972360481394 2.150097236048912 21.029282391406102 0 0 0
254 2 4.0899999999999554 2.1500972360489263 18.8866160558597 0 0 0
255 2 6.029902763951945 7.969805527902202 18.8866160558597 0 -1 0
257 2 4.08999999999994 7.969805527902195 21.029282391406102 0 -1 0
258 2 4.089999999999953 2.150097236048898 23.18012655286791 0 0 0
259 2 6.0299027639519185 7.969805527902202 23.18012655286791 0 -1 0
260 2 6.0299027639519345 2.1500972360489214 21.029282391406078 0 0 0
134 2 7.969805527903748 6.029902763951175 18.88661605585969 -1 0 0
135 2 2.150097236048149 4.089999999999954 18.88661605585969 0 0 0
137 2 7.969805527903734 4.089999999999947 21.029282391406102 -1 0 0
138 2 7.969805527903748 6.029902763951143 23.18012655286791 -1 0 0
139 2 2.150097236048127 4.089999999999953 23.18012655286791 0 0 0
140 2 2.1500972360481394 6.029902763951168 21.029282391406078 0 0 0
374 2 4.089999999999948 6.02990276395115 18.8866160558597 0 0 0
375 2 6.029902763951921 4.089999999999942 18.886616055859687 0 0 0
377 2 4.089999999999953 4.089999999999946 21.029282391406067 0 0 0
378 2 4.089999999999961 6.02990276395116 23.1801265528679 0 0 0
379 2 6.02990276395193 4.089999999999959 23.1801265528679 0 0 0
380 2 6.029902763951937 6.029902763951158 21.02928239140609 0 0 0
21 2 7.969805527903759 7.969805527902214 25.34404721759686 -1 -1 0
22 2 7.969805527903778 2.150097236048879 27.54093826488743 -1 0 0
23 2 2.1500972360481043 7.969805527902231 27.54093826488743 0 -1 0
24 2 2.1500972360481208 2.1500972360488912 25.344047217596852 0 0 0
261 2 4.089999999999977 7.9698055279022215 25.344047217596845 0 -1 0
262 2 4.089999999999968 2.1500972360488904 27.54093826488742 0 0 0
263 2 6.029902763951907 7.9698055279022215 27.54093826488742 0 -1 0
264 2 6.029902763951909 2.150097236048891 25.344047217596852 0 0 0
141 2 7.969805527903763 4.089999999999976 25.34404721759684 -1 0 0
142 2 7.969805527903763 6.029902763951135 27.540938264887412 -1 0 0
143 2 2.1500972360481194 4.089999999999976 27.540938264887412 0 0 0
144 2 2.1500972360481185 6.0299027639511396 25.344047217596852 0 0 0
381 2 4.089999999999971 4.089999999999975 25.344047217596852 0 0 0
382 2 4.089999999999992 6.0299027639511245 27.54093826488743 0 0 0
383 2 6.029902763951895 4.08999999999999 27.54093826488742 0 0 0
384 2 6.029902763951912 6.0299027639511396 25.344047217596852 0 0 0
25 3 7.969805527903778 7.969805527902231 29.38606185586104 -1 -1 0
26 3 7.96980552790378 2.1500972360488726 30.9605230132941 -1 0 0
27 3 2.1500972360480937 7.9698055279022375 30.960523013294107 0 -1 0
28 3 2.1500972360481017 2.150097236048878 29.38606185586104 0 0 0
265 3 4.089999999999988 7.969805527902236 29.386061855861048 0 -1 0
266 3 4.089999999999992 2.150097236048871 30.960523013294107 0 0 0
267 3 6.029902763951888 0.2101944720977515 30.960523013294107 0 0 0
268 3 6.029902763951888 2.15009723604887 29.386061855861033 0 0 0
145 3 0.21019447209620748 4.089999999999996 29.386061855861033 0 0 0
146 3 0.21019447209620748 6.0299027639511165 30.960523013294107 0 0 0
147 3 2.1500972360480968 4.089999999999993 30.960523013294107 0 0 0
148 3 2.1500972360481 6.029902763951115 29.38606185586104 0 0 0
385 3 4.089999999999984 4.089999999999995 29.38606185586104 0 0 0
386 3 4.089999999999992 6.029902763951118 30.960523013294107 0 0 0
387 3 6.029902763951894 4.08999999999999 30.9605230132941 0 0 0
388 3 6.029902763951894 6.029902763951123 29.38606185586104 0 0 0
29 3 7.96980552790378 0.21019447209775 32.544221024074595 -1 0 0
30 3 7.969805527903778 2.15009723604887 34.15820558105933 -1 0 0
31 3 2.1500972360480954 7.969805527902241 34.15820558105933 0 -1 0
32 3 2.1500972360480928 2.150097236048868 32.5442210240746 0 0 0
33 3 7.969805527903785 7.969805527902239 35.80162478550793 -1 -1 0
36 3 2.150097236048094 2.15009723604887 35.80162478550793 0 0 0
269 3 4.089999999999992 7.969805527902241 32.544221024074595 0 -1 0
270 3 4.089999999999996 2.150097236048871 34.15820558105933 0 0 0
271 3 6.029902763951888 7.969805527902241 34.15820558105933 0 -1 0
272 3 6.029902763951894 2.1500972360488744 32.544221024074595 0 0 0
273 3 4.089999999999992 7.9698055279022375 35.80162478550793 0 -1 0
276 3 6.029902763951893 2.1500972360488726 35.80162478550793 0 0 0
149 3 7.96980552790378 4.08999999999999 32.54422102407459 -1 0 0
150 3 7.969805527903778 6.0299027639511165 34.15820558105933 -1 0 0
151 3 2.150097236048098 4.089999999999992 34.15820558105933 0 0 0
152 3 2.150097236048098 6.0299027639511165 32.5442210240746 0 0 0
153 3 7.969805527903784 4.08999999999999 35.80162478550793 -1 0 0
156 3 2.150097236048094 6.029902763951118 35.80162478550793 0 0 0
389 3 4.09 4.089999999999991 32.544221024074595 0 0 0
390 3 4.089999999999992 6.0299027639511165 34.15820558105933 0 0 0
391 3 6.029902763951893 4.089999999999992 34.15820558105933 0 0 0
392 3 6.029902763951888 6.029902763951115 32.54422102407459 0 0 0
393 3 4.09 4.090000000000002 35.80162478550793 0 0 0
396 3 6.029902763951889 6.029902763951115 35.80162478550793 0 0 0
34 3 7.969805527903785 2.15009723604887 37.51066720200781 -1 0 0
35 3 2.1500972360480977 7.969805527902241 37.5106672020078 0 -1 0
37 4 7.969805527903782 7.9698055279022375 39.38635208067823 -1 -1 0
40 4 2.1500972360480968 2.150097236048869 39.386352080678236 0 0 0
274 3 4.089999999999992 2.150097236048869 37.510667202007795 0 0 0
275 3 6.029902763951888 7.969805527902239 37.51066720200779 0 -1 0
277 4 4.089999999999994 7.969805527902239 39.38635208067823 0 -1 0
280 4 6.029902763951889 2.1500972360488686 39.38635208067823 0 0 0
154 3 7.969805527903779 6.0299027639511165 37.5106672020078 -1 0 0
155 3 2.1500972360480977 4.089999999999993 37.510667202007795 0 0 0
157 4 7.969805527903785 4.089999999999993 39.386352080678236 -1 0 0
160 4 2.1500972360480968 6.0299027639511165 39.38635208067823 0 0 0
394 3 4.089999999999992 6.0299027639511165 37.5106672020078 0 0 0
395 3 6.029902763951894 4.089999999999993 37.5106672020078 0 0 0
397 4 4.089999999999992 4.089999999999992 39.38635208067823 0 0 0
400 4 6.029902763951889 6.029902763951118 39.38635208067823 0 0 0
38 4 7.969805527903783 2.1500972360488655 41.27487506701282 -1 0 0
39 4 2.150097236048095 7.969805527902234 41.27487506701282 0 -1 0
41 4 7.969805527903785 7.9698055279022375 43.231295073904555 -1 -1 0
44 4 2.1500972360480968 2.150097236048869 43.231295073904555 0 0 0
278 4 4.089999999999994 2.150097236048869 41.27487506701282 0 0 0
279 4 6.029902763951891 7.969805527902239 41.27487506701282 0 -1 0
281 4 4.089999999999992 7.9698055279022375 43.231295073904555 0 -1 0
284 4 6.029902763951891 2.150097236048869 43.231295073904555 0 0 0
158 4 7.969805527903788 6.029902763951121 41.27487506701282 -1 0 0
159 4 2.1500972360480994 4.089999999999996 41.27487506701282 0 0 0
161 4 7.969805527903783 4.089999999999993 43.231295073904555 -1 0 0
164 4 2.1500972360480963 6.029902763951115 43.231295073904555 0 0 0
398 4 4.089999999999992 6.0299027639511165 41.27487506701282 0 0 0
399 4 6.029902763951888 4.089999999999992 41.27487506701282 0 0 0
401 4 4.089999999999992 4.089999999999993 43.231295073904555 0 0 0
404 4 6.029902763951892 6.0299027639511165 43.231295073904555 0 0 0
42 4 7.9698055279037865 2.1500972360488726 45.17151625613211 -1 0 0
43 4 2.1500972360480977 7.969805527902241 45.17151625613211 0 -1 0
45 4 7.969805527903785 7.9698055279022375 47.123579968219424 -1 -1 0
408 4 6.029902763951888 6.029902763951115 47.12357996821942 0 0 0
405 4 4.089999999999992 4.089999999999992 47.12357996821942 0 0 0
48 4 2.150097236048095 2.150097236048869 47.12357996821942 0 0 0
282 4 4.089999999999992 2.150097236048869 45.17151625613211 0 0 0
283 4 6.029902763951888 7.9698055279022375 45.17151625613211 0 -1 0
285 4 4.089999999999992 7.9698055279022375 47.12357996821942 0 -1 0
403 4 6.02990276395189 4.089999999999993 45.17151625613211 0 0 0
402 4 4.089999999999993 6.029902763951115 45.17151625613211 0 0 0
288 4 6.029902763951888 2.150097236048869 47.12357996821942 0 0 0
162 4 7.969805527903784 6.029902763951109 45.17151625613211 -1 0 0
163 4 2.1500972360480937 4.08999999999999 45.17151625613211 0 0 0
165 4 7.969805527903784 4.089999999999991 47.12357996821942 -1 0 0
168 4 2.1500972360480954 6.0299027639511165 47.12357996821942 0 0 0
49 5 7.969805527903784 7.969805527902234 50.84554159013425 -1 -1 0
50 5 7.96980552790378 2.1500972360488673 52.5450059360253 -1 0 0
51 5 2.1500972360480968 7.969805527902231 52.5450059360253 0 -1 0
52 5 2.1500972360480977 2.1500972360488686 50.84554159013425 0 0 0
289 5 4.089999999999992 7.969805527902236 50.84554159013425 0 -1 0
290 5 4.089999999999992 2.1500972360488673 52.54500593602531 0 0 0
291 5 6.02990276395188 7.969805527902231 52.54500593602531 0 -1 0
292 5 6.029902763951888 2.150097236048868 50.84554159013426 0 0 0
169 5 7.96980552790378 4.08999999999999 50.84554159013425 -1 0 0
170 5 7.969805527903782 6.029902763951115 52.54500593602531 -1 0 0
171 5 2.150097236048098 4.0899999999999945 52.54500593602531 0 0 0
172 5 2.1500972360480968 6.029902763951115 50.84554159013425 0 0 0
409 5 4.089999999999992 4.08999999999999 50.84554159013425 0 0 0
410 5 4.089999999999992 6.029902763951115 52.54500593602531 0 0 0
411 5 6.029902763951883 4.08999999999999 52.5450059360253 0 0 0
412 5 6.029902763951889 6.0299027639511165 50.84554159013426 0 0 0
53 5 7.969805527903779 7.969805527902239 54.14847449050651 -1 -1 0
54 5 7.969805527903778 2.1500972360488686 55.73940441884379 -1 0 0
55 5 2.1500972360480923 7.969805527902236 55.73940441884379 0 -1 0
56 5 2.1500972360480906 2.1500972360488655 54.14847449050651 0 0 0
293 5 4.089999999999992 7.969805527902236 54.14847449050652 0 -1 0
294 5 4.089999999999992 2.150097236048869 55.73940441884378 0 0 0
295 5 6.029902763951888 7.969805527902239 55.73940441884379 0 -1 0
296 5 6.029902763951888 2.150097236048868 54.14847449050651 0 0 0
173 5 7.969805527903778 4.08999999999999 54.14847449050651 -1 0 0
174 5 7.969805527903778 6.0299027639511165 55.73940441884378 -1 0 0
175 5 2.1500972360480928 4.089999999999992 55.73940441884378 0 0 0
176 5 2.1500972360480954 6.0299027639511165 54.1484744905065 0 0 0
413 5 4.089999999999993 4.08999999999999 54.1484744905065 0 0 0
414 5 4.089999999999992 6.029902763951115 55.73940441884379 0 0 0
415 5 6.029902763951888 4.08999999999999 55.73940441884379 0 0 0
416 5 6.0299027639518865 6.029902763951115 54.1484744905065 0 0 0
57 5 7.9698055279037785 7.969805527902234 57.3157212722368 -1 -1 0
58 5 7.969805527903784 2.150097236048868 58.87005747831134 -1 0 0
59 5 2.1500972360480954 7.969805527902239 58.87005747831134 0 -1 0
60 5 2.1500972360480977 2.150097236048869 57.31572127223677 0 0 0
61 6 7.969805527903783 7.9698055279022375 60.69142272087062 -1 -1 0
64 6 2.1500972360480963 2.1500972360488677 60.69142272087062 0 0 0
297 5 4.089999999999992 7.969805527902241 57.3157212722368 0 -1 0
298 5 4.089999999999992 2.1500972360488655 58.87005747831134 0 0 0
299 5 6.029902763951885 7.969805527902239 58.87005747831134 0 -1 0
300 5 6.029902763951886 2.150097236048869 57.3157212722368 0 0 0
301 6 4.089999999999992 7.9698055279022375 60.69142272087062 0 -1 0
304 6 6.029902763951888 2.1500972360488677 60.69142272087062 0 0 0
177 5 7.969805527903781 4.0899999999999945 57.3157212722368 -1 0 0
178 5 7.969805527903778 6.029902763951115 58.87005747831134 -1 0 0
179 5 2.150097236048095 4.089999999999989 58.87005747831134 0 0 0
180 5 2.150097236048091 6.029902763951111 57.3157212722368 0 0 0
181 6 7.969805527903783 4.08999999999999 60.69142272087062 -1 0 0
184 6 2.1500972360480977 6.029902763951115 60.69142272087062 0 0 0
417 5 4.08999999999999 4.08999999999999 57.3157212722368 0 0 0
418 5 4.089999999999992 6.029902763951115 58.87005747831134 0 0 0
419 5 6.029902763951888 4.08999999999999 58.87005747831134 0 0 0
420 5 6.029902763951888 6.029902763951115 57.3157212722368 0 0 0
421 6 4.089999999999992 4.08999999999999 60.69142272087062 0 0 0
424 6 6.029902763951888 6.029902763951111 60.69142272087062 0 0 0
62 6 7.969805527903783 2.1500972360488637 62.767755792484515 -1 0 0
63 6 2.150097236048098 7.969805527902239 62.767755792484515 0 -1 0
65 6 0.21019447209620748 0.21019447209775066 64.80092298664212 0 0 0
68 6 2.150097236048093 2.150097236048863 64.80092298664212 0 0 0
302 6 4.089999999999992 2.150097236048869 62.767755792484515 0 0 0
303 6 6.029902763951888 7.969805527902236 62.767755792484515 0 -1 0
305 6 4.089999999999992 7.9698055279022375 64.80092298664212 0 -1 0
308 6 6.029902763951891 2.150097236048868 64.80092298664212 0 0 0
182 6 7.969805527903785 6.029902763951121 62.767755792484515 -1 0 0
183 6 2.1500972360480994 4.08999999999999 62.767755792484515 0 0 0
185 6 7.969805527903784 4.0899999999999865 64.80092298664208 -1 0 0
188 6 2.1500972360480985 6.029902763951118 64.80092298664212 0 0 0
422 6 4.089999999999992 6.0299027639511165 62.767755792484515 0 0 0
423 6 6.0299027639518865 4.089999999999992 62.767755792484515 0 0 0
425 6 4.089999999999992 4.08999999999999 64.80092298664212 0 0 0
428 6 6.029902763951888 6.029902763951115 64.80092298664212 0 0 0
46 4 7.969805527903783 2.1500972360488655 49.06302847132529 -1 0 0
47 4 2.1500972360480977 7.969805527902236 49.06302847132529 0 -1 0
407 4 6.029902763951888 4.08999999999999 49.06302847132529 0 0 0
406 4 4.089999999999992 6.0299027639511165 49.06302847132529 0 0 0
286 4 4.089999999999992 2.1500972360488677 49.06302847132529 0 0 0
287 4 6.029902763951888 7.9698055279022375 49.06302847132529 0 -1 0
166 4 7.969805527903783 6.0299027639511165 49.06302847132529 -1 0 0
167 4 2.150097236048097 4.089999999999991 49.06302847132529 0 0 0
66 6 7.969805527903787 2.150097236048869 66.81428321694715 -1 0 0
67 6 2.1500972360480977 7.969805527902234 66.81428321694719 0 -1 0
69 6 7.9698055279037785 7.969805527902231 68.80755380702867 -1 -1 0
72 6 2.1500972360481017 2.150097236048871 68.80755380702867 0 0 0
306 6 4.089999999999992 2.1500972360488686 66.81428321694712 0 0 0
307 6 6.029902763951889 7.969805527902236 66.81428321694709 0 -1 0
309 6 4.089999999999996 7.969805527902239 68.80755380702867 0 -1 0
312 6 6.029902763951883 2.1500972360488655 68.80755380702867 0 0 0
186 6 7.969805527903785 6.029902763951107 66.81428321694709 -1 0 0
187 6 2.1500972360480923 4.089999999999991 66.81428321694709 0 0 0
189 6 7.9698055279037865 4.090000000000002 68.80755380702867 -1 0 0
192 6 2.150097236048094 6.029902763951107 68.80755380702867 0 0 0
426 6 4.089999999999992 6.029902763951109 66.81428321694712 0 0 0
427 6 6.029902763951894 4.089999999999992 66.81428321694712 0 0 0
429 6 4.089999999999992 4.08999999999999 68.80755380702867 0 0 0
432 6 6.029902763951889 6.029902763951111 68.80755380702867 0 0 0
70 6 7.96980552790378 2.150097236048862 70.79152607290219 -1 0 0
71 6 2.1500972360480874 7.969805527902236 70.7915260729022 0 -1 0
73 7 0.21019447209624165 0.21019447209778352 72.75895708540965 0 0 0
74 7 0.21019447209633224 2.1500972360488393 74.72642493452817 0 0 0
75 7 2.1500972360480617 0.21019447209786524 74.72642493452817 0 0 0
76 7 2.150097236048052 2.1500972360488304 72.75895708540962 0 0 0
310 6 4.0900000000000025 2.1500972360488646 70.79152607290217 0 0 0
311 6 6.029902763951888 0.21019447209775777 70.79152607290217 0 0 0
313 7 4.089999999999984 7.9698055279022295 72.7589570854096 0 -1 0
314 7 4.0899999999999395 2.150097236048827 74.72642493452825 0 0 0
315 7 6.0299027639518386 7.969805527902168 74.72642493452825 0 -1 0
316 7 6.0299027639518945 2.150097236048881 72.7589570854096 0 0 0
190 6 0.21019447209621056 6.029902763951115 70.79152607290217 0 0 0
191 6 2.150097236048092 4.090000000000004 70.79152607290217 0 0 0
193 7 7.969805527903777 4.08999999999998 72.75895708540959 -1 0 0
194 7 7.969805527903727 6.029902763951078 74.72642493452825 -1 0 0
195 7 2.15009723604805 4.08999999999993 74.72642493452825 0 0 0
196 7 2.150097236048101 6.0299027639511245 72.7589570854096 0 0 0
430 6 4.089999999999992 6.029902763951109 70.7915260729022 0 0 0
431 6 6.029902763951883 4.089999999999986 70.7915260729022 0 0 0
433 7 4.090000000000037 4.09000000000003 72.75895708540958 0 0 0
434 7 4.090000000000134 6.029902763951094 74.72642493452817 0 0 0
435 7 6.029902763951849 4.090000000000119 74.72642493452814 0 0 0
436 7 6.029902763951846 6.029902763951071 72.75895708540962 0 0 0
77 7 7.969805527903779 7.969805527902226 76.70542235009916 -1 -1 0
78 7 7.969805527903575 2.1500972360488597 78.6437673444263 -1 0 0
79 7 2.150097236048049 7.969805527901996 78.6437673444264 0 -1 0
80 7 2.1500972360480857 2.150097236048898 76.70542235009906 0 0 0
317 7 4.090000000000133 0.21019447209784925 76.70542235009918 0 0 0
318 7 4.09000000000038 2.1500972360487784 78.64376734442627 0 0 0
319 7 6.029902763951758 0.21019447209810593 78.64376734442627 0 0 0
320 7 6.029902763951761 2.150097236048749 76.70542235009935 0 0 0
197 7 0.21019447209634734 4.090000000000095 76.70542235009923 0 0 0
198 7 0.21019447209659425 6.02990276395101 78.64376734442627 0 0 0
199 7 2.150097236047968 4.090000000000348 78.64376734442622 0 0 0
200 7 2.150097236047969 6.029902763950989 76.70542235009935 0 0 0
437 7 4.089999999999978 4.089999999999978 76.70542235009918 0 0 0
438 7 4.089999999999773 6.029902763951094 78.64376734442632 0 0 0
439 7 6.0299027639518386 4.089999999999739 78.6437673444264 0 0 0
440 7 6.029902763951882 6.029902763951145 76.70542235009901 0 0 0
81 7 0.21019447209635977 0.21019447209781905 80.6159260081537 0 0 0
82 7 0.2101944720965907 2.1500972360487536 82.54505363480398 0 0 0
83 7 2.1500972360479587 0.21019447209810593 82.54505363480396 0 0 0
84 7 2.150097236047984 2.15009723604874 80.61592600815395 0 0 0
321 7 4.090000000000007 0.2101944720977693 80.6159260081536 0 0 0
322 7 4.089999999999724 2.150097236048913 82.54505363480398 0 0 0
323 7 6.029902763951905 7.969805527901944 82.54505363480403 0 -1 0
324 7 6.029902763951828 2.1500972360488895 80.6159260081533 0 0 0
201 7 7.969805527903791 4.090000000000016 80.6159260081536 -1 0 0
202 7 7.969805527903523 6.02990276395116 82.54505363480398 -1 0 0
203 7 2.150097236048117 4.0899999999996925 82.54505363480403 0 0 0
204 7 2.150097236048036 6.029902763951145 80.6159260081533 0 0 0
441 7 4.09000000000016 4.0900000000000665 80.6159260081537 0 0 0
442 7 4.090000000000382 6.029902763951005 82.54505363480398 0 0 0
443 7 6.029902763951745 4.090000000000349 82.54505363480396 0 0 0
444 7 6.0299027639517755 6.02990276395099 80.61592600815395 0 0 0
85 8 0.21019447209621767 0.21019447209775244 84.42988816860863 0 0 0
86 8 7.969805527903756 2.1500972360488806 86.20783225398812 -1 0 0
87 8 2.150097236048108 7.969805527902202 86.20783225398806 0 -1 0
88 8 2.1500972360480817 2.150097236048863 84.42988816860847 0 0 0
89 8 7.969805527903787 7.9698055279022375 88.01291847166554 -1 -1 0
92 8 2.150097236048092 2.1500972360488655 88.01291847166557 0 0 0
325 8 4.09000000000002 0.21019447209775421 84.42988816860876 0 0 0
326 8 4.090000000000032 2.1500972360488513 86.20783225398806 0 0 0
327 8 6.029902763951873 0.2101944720977782 86.20783225398806 0 0 0
328 8 6.029902763951863 2.1500972360488495 84.42988816860891 0 0 0
329 8 4.089999999999994 7.969805527902239 88.01291847166554 0 -1 0
332 8 6.02990276395189 2.1500972360488655 88.01291847166553 0 0 0
205 8 0.210194472096231 4.09 84.42988816860876 0 0 0
206 8 0.21019447209623987 6.029902763951094 86.20783225398812 0 0 0
207 8 2.1500972360480786 4.09000000000003 86.20783225398806 0 0 0
208 8 2.1500972360480826 6.029902763951096 84.42988816860891 0 0 0
209 8 7.969805527903784 4.08999999999999 88.01291847166554 -1 0 0
212 8 2.15009723604809 6.029902763951111 88.01291847166553 0 0 0
445 8 4.090000000000005 4.090000000000001 84.42988816860863 0 0 0
446 8 4.089999999999964 6.029902763951127 86.20783225398807 0 0 0
447 8 6.029902763951902 4.089999999999957 86.20783225398806 0 0 0
448 8 6.029902763951863 6.029902763951107 84.42988816860847 0 0 0
449 8 4.089999999999995 4.089999999999987 88.01291847166559 0 0 0
452 8 6.029902763951893 6.029902763951111 88.01291847166557 0 0 0
90 8 7.969805527903784 2.150097236048869 89.80864736883501 -1 0 0
91 8 2.150097236048095 7.9698055279022375 89.80864736883501 0 -1 0
93 8 7.969805527903788 7.969805527902236 91.59539857478003 -1 -1 0
96 8 2.1500972360480963 2.1500972360488673 91.59539857478005 0 0 0
330 8 4.089999999999994 2.1500972360488655 89.80864736883501 0 0 0
331 8 6.029902763951892 7.969805527902239 89.80864736883501 0 -1 0
333 8 4.08999999999999 7.969805527902236 91.59539857478006 0 -1 0
336 8 6.029902763951889 2.150097236048871 91.59539857478003 0 0 0
210 8 7.969805527903788 6.029902763951107 89.80864736883501 -1 0 0
211 8 2.150097236048091 4.089999999999992 89.80864736883501 0 0 0
213 8 7.969805527903784 4.08999999999999 91.59539857478005 -1 0 0
216 8 2.1500972360480954 6.029902763951109 91.59539857478003 0 0 0
450 8 4.089999999999992 6.0299027639511165 89.80864736883501 0 0 0
451 8 6.029902763951892 4.089999999999986 89.80864736883501 0 0 0
453 8 4.089999999999992 4.08999999999999 91.59539857478003 0 0 0
456 8 6.029902763951889 6.029902763951107 91.59539857478005 0 0 0
94 8 7.969805527903782 2.1500972360488655 93.41188359382757 -1 0 0
95 8 2.150097236048095 7.969805527902236 93.41188359382757 0 -1 0
97 9 7.96980552790378 7.969805527902234 95.20317261731557 -1 -1 0
100 9 2.1500972360480923 2.1500972360488673 95.20317261731557 0 0 0
334 8 4.089999999999994 2.150097236048868 93.41188359382757 0 0 0
335 8 6.02990276395189 7.969805527902236 93.41188359382757 0 -1 0
337 9 4.0899999999999945 7.969805527902231 95.20317261731557 0 -1 0
340 9 6.029902763951889 2.150097236048862 95.20317261731557 0 0 0
214 8 7.969805527903784 6.029902763951115 93.41188359382757 -1 0 0
215 8 2.1500972360480977 4.089999999999991 93.41188359382757 0 0 0
217 9 7.969805527903784 4.089999999999994 95.20317261731557 -1 0 0
220 9 2.1500972360480963 6.029902763951109 95.20317261731557 0 0 0
454 8 4.089999999999992 6.029902763951111 93.41188359382757 0 0 0
455 8 6.0299027639518865 4.08999999999999 93.41188359382757 0 0 0
457 9 4.089999999999992 4.089999999999995 95.20317261731557 0 0 0
460 9 6.029902763951889 6.0299027639511165 95.20317261731557 0 0 0
98 9 7.969805527903782 2.1500972360488726 96.95750189049065 -1 0 0
99 9 2.1500972360481 7.969805527902231 96.95750189049065 0 -1 0
101 9 7.969805527903784 7.969805527902236 98.76163632871719 -1 -1 0
102 9 7.9698055279037865 2.1500972360488566 100.53130311045192 -1 0 0
103 9 2.150097236048085 0.21019447209775244 100.53130311045193 0 0 0
104 9 2.1500972360480994 2.1500972360488673 98.76163632871719 0 0 0
338 9 4.089999999999992 2.150097236048862 96.95750189049065 0 0 0
339 9 6.029902763951885 7.969805527902231 96.95750189049065 0 -1 0
341 9 4.089999999999992 7.969805527902242 98.76163632871719 0 -1 0
342 9 4.08999999999999 2.150097236048879 100.53130311045192 0 0 0
343 9 6.0299027639519 7.969805527902242 100.53130311045192 0 -1 0
344 9 6.029902763951886 2.150097236048868 98.76163632871719 0 0 0
218 9 7.969805527903784 6.029902763951106 96.9575018904907 -1 0 0
219 9 2.1500972360480906 4.0899999999999945 96.95750189049065 0 0 0
221 9 7.969805527903784 4.08999999999999 98.76163632871719 -1 0 0
222 9 7.969805527903785 6.029902763951123 100.53130311045192 -1 0 0
223 9 2.150097236048106 4.089999999999983 100.53130311045193 0 0 0
224 9 2.1500972360480923 6.029902763951111 98.76163632871719 0 0 0
458 9 4.089999999999992 6.029902763951118 96.9575018904907 0 0 0
459 9 6.029902763951894 4.089999999999994 96.95750189049065 0 0 0
461 9 4.089999999999992 4.089999999999986 98.76163632871719 0 0 0
462 9 4.089999999999992 6.029902763951101 100.53130311045192 0 0 0
463 9 6.029902763951878 4.089999999999983 100.53130311045193 0 0 0
464 9 6.029902763951891 6.029902763951111 98.76163632871719 0 0 0
105 9 7.969805527903783 7.9698055279022375 102.33735340523181 -1 -1 0
106 9 7.96980552790378 2.1500972360488766 104.06597325125524 -1 0 0
107 9 2.1500972360481097 7.969805527902231 104.06597325125524 0 -1 0
108 9 2.150097236048094 2.1500972360488677 102.3373534052318 0 0 0
345 9 4.089999999999992 7.969805527902236 102.33735340523172 0 -1 0
346 9 4.089999999999995 2.1500972360488544 104.06597325125524 0 0 0
347 9 6.029902763951874 7.969805527902234 104.06597325125524 0 -1 0
348 9 6.02990276395189 2.150097236048867 102.3373534052318 0 0 0
225 9 7.969805527903782 4.089999999999989 102.3373534052318 -1 0 0
226 9 7.969805527903779 6.029902763951103 104.06597325125524 -1 0 0
227 9 2.150097236048085 4.089999999999995 104.06597325125524 0 0 0
228 9 2.1500972360480963 6.029902763951111 102.3373534052318 0 0 0
465 9 4.089999999999992 4.089999999999991 102.33735340523181 0 0 0
466 9 4.089999999999995 6.029902763951128 104.06597325125524 0 0 0
467 9 6.029902763951899 4.089999999999993 104.06597325125524 0 0 0
468 9 6.029902763951888 6.029902763951111 102.3373534052318 0 0 0
109 10 7.969805527903781 7.9698055279022375 105.94297964179312 -1 -1 0
110 10 0.21019447209626357 2.1500972360489126 108.45918368139564 0 0 0
111 10 2.1500972360480457 7.969805527902181 108.45918368139567 0 -1 0
112 10 2.1500972360480928 2.150097236048868 105.94297964179312 0 0 0
349 10 4.089999999999993 7.969805527902241 105.94297964179314 0 -1 0
350 10 4.089999999999935 2.150097236048822 108.45918368139564 0 0 0
351 10 6.029902763951945 0.21019447209780465 108.45918368139567 0 0 0
352 10 6.029902763951889 2.1500972360488655 105.94297964179314 0 0 0
229 10 7.969805527903782 4.089999999999993 105.94297964179312 -1 0 0
230 10 7.969805527903729 6.0299027639510685 108.45918368139564 -1 0 0
231 10 2.1500972360481474 4.090000000000048 108.45918368139564 0 0 0
232 10 2.1500972360480954 6.029902763951115 105.94297964179314 0 0 0