ITEM: TIMESTEP
0
ITEM: NUMBER OF ATOMS
480
ITEM: BOX BOUNDS pp pp pp
2.1402692714793220e-01 7.9659730728520737e+00
2.1402692692587233e-01 7.9659730730741325e+00
-3.7789447803484593e+00 1.3647894478034817e+02
ITEM: ATOMS id type element xu yu zu f_grace_gamma
1 1 Ag 0.214027 0.214027 4.12414 2.20025
4 1 Ag 2.15201 2.15201 4.12414 2.20025
241 1 Ag 4.09 0.214027 4.12414 2.20025
244 1 Ag 6.02799 2.15201 4.12414 2.20025
121 1 Ag 0.214027 4.09 4.12414 2.20025
124 1 Ag 2.15201 6.02799 4.12414 2.20025
361 1 Ag 4.09 4.09 4.12414 2.20025
364 1 Ag 6.02799 6.02799 4.12414 2.20025
2 1 Ag 0.214027 2.15201 6.22512 0.627007
3 1 Ag 2.15201 0.214027 6.22512 0.627007
5 1 Ag 0.214027 0.214027 8.33309 0.574028
8 1 Ag 2.15201 2.15201 8.33309 0.574028
242 1 Ag 4.09 2.15201 6.22512 0.627007
243 1 Ag 6.02799 0.214027 6.22512 0.627007
245 1 Ag 4.09 0.214027 8.33309 0.574028
248 1 Ag 6.02799 2.15201 8.33309 0.574028
122 1 Ag 0.214027 6.02799 6.22512 0.627007
123 1 Ag 2.15201 4.09 6.22512 0.627007
125 1 Ag 0.214027 4.09 8.33309 0.574028
128 1 Ag 2.15201 6.02799 8.33309 0.574028
362 1 Ag 4.09 6.02799 6.22512 0.627007
363 1 Ag 6.02799 4.09 6.22512 0.627007
365 1 Ag 4.09 4.09 8.33309 0.574028
368 1 Ag 6.02799 6.02799 8.33309 0.574028
6 1 Ag 0.214027 2.15201 10.4113 0.562813
7 1 Ag 2.15201 0.214027 10.4113 0.562813
9 1 Ag 0.214027 0.214027 12.4819 0.563619
12 1 Ag 2.15201 2.15201 12.4819 0.563619
246 1 Ag 4.09 2.15201 10.4113 0.562813
247 1 Ag 6.02799 0.214027 10.4113 0.562813
249 1 Ag 4.09 0.214027 12.4819 0.563619
252 1 Ag 6.02799 2.15201 12.4819 0.563619
126 1 Ag 0.214027 6.02799 10.4113 0.562813
127 1 Ag 2.15201 4.09 10.4113 0.562813
129 1 Ag 0.214027 4.09 12.4819 0.563619
132 1 Ag 2.15201 6.02799 12.4819 0.563619
366 1 Ag 4.09 6.02799 10.4113 0.562813
367 1 Ag 6.02799 4.09 10.4113 0.562813
369 1 Ag 4.09 4.09 12.4819 0.563619
372 1 Ag 6.02799 6.02799 12.4819 0.563619
10 1 Ag 0.214027 2.15201 14.5454 0.576052
11 1 Ag 2.15201 0.214027 14.5454 0.576052
13 2 Au 0.214027 0.214027 16.6442 0.511438
16 2 Au 2.15201 2.15201 16.6442 0.511438
250 1 Ag 4.09 2.15201 14.5454 0.576052
251 1 Ag 6.02799 0.214027 14.5454 0.576052
253 2 Au 4.09 0.214027 16.6442 0.511438
256 2 Au 6.02799 2.15201 16.6442 0.511438
130 1 Ag 0.214027 6.02799 14.5454 0.576052
131 1 Ag 2.15201 4.09 14.5454 0.576052
133 2 Au 0.214027 4.09 16.6442 0.511438
136 2 Au 2.15201 6.02799 16.6442 0.511438
370 1 Ag 4.09 6.02799 14.5454 0.576052
371 1 Ag 6.02799 4.09 14.5454 0.576052
373 2 Au 4.09 4.09 16.6442 0.511438
376 2 Au 6.02799 6.02799 16.6442 0.511438
14 2 Au 0.214027 2.15201 18.8062 0.511438
15 2 Au 2.15201 0.214027 18.8062 0.511438
17 2 Au 0.214027 0.214027 20.9678 0.509413
20 2 Au 2.15201 2.15201 20.9678 0.509413
254 2 Au 4.09 2.15201 18.8062 0.511438
255 2 Au 6.02799 0.214027 18.8062 0.511438
257 2 Au 4.09 0.214027 20.9678 0.509413
260 2 Au 6.02799 2.15201 20.9678 0.509413
134 2 Au 0.214027 6.02799 18.8062 0.511438
135 2 Au 2.15201 4.09 18.8062 0.511438
137 2 Au 0.214027 4.09 20.9678 0.509413
140 2 Au 2.15201 6.02799 20.9678 0.509413
374 2 Au 4.09 6.02799 18.8062 0.511438
375 2 Au 6.02799 4.09 18.8062 0.511438
377 2 Au 4.09 4.09 20.9678 0.509413
380 2 Au 6.02799 6.02799 20.9678 0.509413
18 2 Au 0.214027 2.15201 23.1378 0.514346
19 2 Au 2.15201 0.214027 23.1378 0.514346
258 2 Au 4.09 2.15201 23.1378 0.514346
259 2 Au 6.02799 0.214027 23.1378 0.514346
138 2 Au 0.214027 6.02799 23.1378 0.514346
139 2 Au 2.15201 4.09 23.1378 0.514346
378 2 Au 4.09 6.02799 23.1378 0.514346
379 2 Au 6.02799 4.09 23.1378 0.514346
21 2 Au 0.214027 0.214027 25.322 0.524424
24 2 Au 2.15201 2.15201 25.322 0.524424
261 2 Au 4.09 0.214027 25.322 0.524424
264 2 Au 6.02799 2.15201 25.322 0.524424
141 2 Au 0.214027 4.09 25.322 0.524424
144 2 Au 2.15201 6.02799 25.322 0.524424
381 2 Au 4.09 4.09 25.322 0.524424
384 2 Au 6.02799 6.02799 25.322 0.524424
22 2 Au 0.214027 2.15201 27.5368 0.449218
23 2 Au 2.15201 0.214027 27.5368 0.449218
262 2 Au 4.09 2.15201 27.5368 0.449218
263 2 Au 6.02799 0.214027 27.5368 0.449218
142 2 Au 0.214027 6.02799 27.5368 0.449218
143 2 Au 2.15201 4.09 27.5368 0.449218
382 2 Au 4.09 6.02799 27.5368 0.449218
383 2 Au 6.02799 4.09 27.5368 0.449218
25 3 Cu 0.214027 0.214027 29.3988 0.6332
26 3 Cu 0.214027 2.15201 30.9798 0.597944
27 3 Cu 2.15201 0.214027 30.9798 0.597944
28 3 Cu 2.15201 2.15201 29.3988 0.6332
265 3 Cu 4.09 0.214027 29.3988 0.6332
266 3 Cu 4.09 2.15201 30.9798 0.597944
267 3 Cu 6.02799 0.214027 30.9798 0.597944
268 3 Cu 6.02799 2.15201 29.3988 0.6332
145 3 Cu 0.214027 4.09 29.3988 0.6332
146 3 Cu 0.214027 6.02799 30.9798 0.597944
147 3 Cu 2.15201 4.09 30.9798 0.597944
148 3 Cu 2.15201 6.02799 29.3988 0.6332
385 3 Cu 4.09 4.09 29.3988 0.6332
386 3 Cu 4.09 6.02799 30.9798 0.597944
387 3 Cu 6.02799 4.09 30.9798 0.597944
388 3 Cu 6.02799 6.02799 29.3988 0.6332
29 3 Cu 0.214027 0.214027 32.5727 0.648279
30 3 Cu 0.214027 2.15201 34.1955 0.637029
31 3 Cu 2.15201 0.214027 34.1955 0.637029
32 3 Cu 2.15201 2.15201 32.5727 0.648279
269 3 Cu 4.09 0.214027 32.5727 0.648279
270 3 Cu 4.09 2.15201 34.1955 0.637029
271 3 Cu 6.02799 0.214027 34.1955 0.637029
272 3 Cu 6.02799 2.15201 32.5727 0.648279
149 3 Cu 0.214027 4.09 32.5727 0.648279
150 3 Cu 0.214027 6.02799 34.1955 0.637029
151 3 Cu 2.15201 4.09 34.1955 0.637029
152 3 Cu 2.15201 6.02799 32.5727 0.648279
389 3 Cu 4.09 4.09 32.5727 0.648279
390 3 Cu 4.09 6.02799 34.1955 0.637029
391 3 Cu 6.02799 4.09 34.1955 0.637029
392 3 Cu 6.02799 6.02799 32.5727 0.648279
33 3 Cu 0.214027 0.214027 35.842 0.610584
36 3 Cu 2.15201 2.15201 35.842 0.610584
273 3 Cu 4.09 0.214027 35.842 0.610584
276 3 Cu 6.02799 2.15201 35.842 0.610584
153 3 Cu 0.214027 4.09 35.842 0.610584
156 3 Cu 2.15201 6.02799 35.842 0.610584
393 3 Cu 4.09 4.09 35.842 0.610584
396 3 Cu 6.02799 6.02799 35.842 0.610584
34 3 Cu 0.214027 2.15201 37.5327 0.425422
35 3 Cu 2.15201 0.214027 37.5327 0.425422
37 4 Ir 0.214027 0.214027 39.3984 0.459965
40 4 Ir 2.15201 2.15201 39.3984 0.459965
274 3 Cu 4.09 2.15201 37.5327 0.425422
275 3 Cu 6.02799 0.214027 37.5327 0.425422
277 4 Ir 4.09 0.214027 39.3984 0.459965
280 4 Ir 6.02799 2.15201 39.3984 0.459965
154 3 Cu 0.214027 6.02799 37.5327 0.425422
155 3 Cu 2.15201 4.09 37.5327 0.425422
157 4 Ir 0.214027 4.09 39.3984 0.459965
160 4 Ir 2.15201 6.02799 39.3984 0.459965
394 3 Cu 4.09 6.02799 37.5327 0.425422
395 3 Cu 6.02799 4.09 37.5327 0.425422
397 4 Ir 4.09 4.09 39.3984 0.459965
400 4 Ir 6.02799 6.02799 39.3984 0.459965
38 4 Ir 0.214027 2.15201 41.2761 0.646807
39 4 Ir 2.15201 0.214027 41.2761 0.646807
41 4 Ir 0.214027 0.214027 43.2201 0.738993
44 4 Ir 2.15201 2.15201 43.2201 0.738993
278 4 Ir 4.09 2.15201 41.2761 0.646807
279 4 Ir 6.02799 0.214027 41.2761 0.646807
281 4 Ir 4.09 0.214027 43.2201 0.738993
284 4 Ir 6.02799 2.15201 43.2201 0.738993
158 4 Ir 0.214027 6.02799 41.2761 0.646807
159 4 Ir 2.15201 4.09 41.2761 0.646807
161 4 Ir 0.214027 4.09 43.2201 0.738993
164 4 Ir 2.15201 6.02799 43.2201 0.738993
398 4 Ir 4.09 6.02799 41.2761 0.646807
399 4 Ir 6.02799 4.09 41.2761 0.646807
401 4 Ir 4.09 4.09 43.2201 0.738993
404 4 Ir 6.02799 6.02799 43.2201 0.738993
42 4 Ir 0.214027 2.15201 45.1477 0.738225
43 4 Ir 2.15201 0.214027 45.1477 0.738225
45 4 Ir 0.214027 0.214027 47.0862 0.67661
408 4 Ir 6.02799 6.02799 47.0862 0.67661
405 4 Ir 4.09 4.09 47.0862 0.67661
48 4 Ir 2.15201 2.15201 47.0862 0.67661
282 4 Ir 4.09 2.15201 45.1477 0.738225
283 4 Ir 6.02799 0.214027 45.1477 0.738225
285 4 Ir 4.09 0.214027 47.0862 0.67661
403 4 Ir 6.02799 4.09 45.1477 0.738225
402 4 Ir 4.09 6.02799 45.1477 0.738225
288 4 Ir 6.02799 2.15201 47.0862 0.67661
162 4 Ir 0.214027 6.02799 45.1477 0.738225
163 4 Ir 2.15201 4.09 45.1477 0.738225
165 4 Ir 0.214027 4.09 47.0862 0.67661
168 4 Ir 2.15201 6.02799 47.0862 0.67661
49 5 Ni 0.214027 0.214027 50.7807 0.548787
50 5 Ni 0.214027 2.15201 52.4639 0.44252
51 5 Ni 2.15201 0.214027 52.4639 0.44252
52 5 Ni 2.15201 2.15201 50.7807 0.548787
289 5 Ni 4.09 0.214027 50.7807 0.548787
290 5 Ni 4.09 2.15201 52.4639 0.44252
291 5 Ni 6.02799 0.214027 52.4639 0.44252
292 5 Ni 6.02799 2.15201 50.7807 0.548787
169 5 Ni 0.214027 4.09 50.7807 0.548787
170 5 Ni 0.214027 6.02799 52.4639 0.44252
171 5 Ni 2.15201 4.09 52.4639 0.44252
172 5 Ni 2.15201 6.02799 50.7807 0.548787
409 5 Ni 4.09 4.09 50.7807 0.548787
410 5 Ni 4.09 6.02799 52.4639 0.44252
411 5 Ni 6.02799 4.09 52.4639 0.44252
412 5 Ni 6.02799 6.02799 50.7807 0.548787
46 4 Ir 0.214027 2.15201 49.0125 0.464953
47 4 Ir 2.15201 0.214027 49.0125 0.464953
407 4 Ir 6.02799 4.09 49.0125 0.464953
406 4 Ir 4.09 6.02799 49.0125 0.464953
286 4 Ir 4.09 2.15201 49.0125 0.464953
287 4 Ir 6.02799 0.214027 49.0125 0.464953
166 4 Ir 0.214027 6.02799 49.0125 0.464953
167 4 Ir 2.15201 4.09 49.0125 0.464953
53 5 Ni 0.214027 0.214027 54.074 0.435939
54 5 Ni 0.214027 2.15201 55.6891 0.431887
55 5 Ni 2.15201 0.214027 55.6891 0.431887
56 5 Ni 2.15201 2.15201 54.074 0.435939
293 5 Ni 4.09 0.214027 54.074 0.435939
294 5 Ni 4.09 2.15201 55.6891 0.431887
295 5 Ni 6.02799 0.214027 55.6891 0.431887
296 5 Ni 6.02799 2.15201 54.074 0.435939
173 5 Ni 0.214027 4.09 54.074 0.435939
174 5 Ni 0.214027 6.02799 55.6891 0.431887
175 5 Ni 2.15201 4.09 55.6891 0.431887
176 5 Ni 2.15201 6.02799 54.074 0.435939
413 5 Ni 4.09 4.09 54.074 0.435939
414 5 Ni 4.09 6.02799 55.6891 0.431887
415 5 Ni 6.02799 4.09 55.6891 0.431887
416 5 Ni 6.02799 6.02799 54.074 0.435939
57 5 Ni 0.214027 0.214027 57.2956 0.471818
60 5 Ni 2.15201 2.15201 57.2956 0.471818
297 5 Ni 4.09 0.214027 57.2956 0.471818
300 5 Ni 6.02799 2.15201 57.2956 0.471818
177 5 Ni 0.214027 4.09 57.2956 0.471818
180 5 Ni 2.15201 6.02799 57.2956 0.471818
417 5 Ni 4.09 4.09 57.2956 0.471818
420 5 Ni 6.02799 6.02799 57.2956 0.471818
58 5 Ni 0.214027 2.15201 58.8651 0.477736
59 5 Ni 2.15201 0.214027 58.8651 0.477736
61 6 Pd 0.214027 0.214027 60.6854 0.550184
64 6 Pd 2.15201 2.15201 60.6854 0.550184
298 5 Ni 4.09 2.15201 58.8651 0.477736
299 5 Ni 6.02799 0.214027 58.8651 0.477736
301 6 Pd 4.09 0.214027 60.6854 0.550184
304 6 Pd 6.02799 2.15201 60.6854 0.550184
178 5 Ni 0.214027 6.02799 58.8651 0.477736
179 5 Ni 2.15201 4.09 58.8651 0.477736
181 6 Pd 0.214027 4.09 60.6854 0.550184
184 6 Pd 2.15201 6.02799 60.6854 0.550184
418 5 Ni 4.09 6.02799 58.8651 0.477736
419 5 Ni 6.02799 4.09 58.8651 0.477736
421 6 Pd 4.09 4.09 60.6854 0.550184
424 6 Pd 6.02799 6.02799 60.6854 0.550184
62 6 Pd 0.214027 2.15201 62.7484 0.606389
63 6 Pd 2.15201 0.214027 62.7484 0.606389
65 6 Pd 0.214027 0.214027 64.7734 0.606525
68 6 Pd 2.15201 2.15201 64.7734 0.606525
302 6 Pd 4.09 2.15201 62.7484 0.606389
303 6 Pd 6.02799 0.214027 62.7484 0.606389
305 6 Pd 4.09 0.214027 64.7734 0.606525
308 6 Pd 6.02799 2.15201 64.7734 0.606525
182 6 Pd 0.214027 6.02799 62.7484 0.606389
183 6 Pd 2.15201 4.09 62.7484 0.606389
185 6 Pd 0.214027 4.09 64.7734 0.606525
188 6 Pd 2.15201 6.02799 64.7734 0.606525
422 6 Pd 4.09 6.02799 62.7484 0.606389
423 6 Pd 6.02799 4.09 62.7484 0.606389
425 6 Pd 4.09 4.09 64.7734 0.606525
428 6 Pd 6.02799 6.02799 64.7734 0.606525
66 6 Pd 0.214027 2.15201 66.7809 0.591362
67 6 Pd 2.15201 0.214027 66.7809 0.591362
69 6 Pd 0.214027 0.214027 68.7726 0.590466
72 6 Pd 2.15201 2.15201 68.7726 0.590466
306 6 Pd 4.09 2.15201 66.7809 0.591362
307 6 Pd 6.02799 0.214027 66.7809 0.591362
309 6 Pd 4.09 0.214027 68.7726 0.590466
312 6 Pd 6.02799 2.15201 68.7726 0.590466
186 6 Pd 0.214027 6.02799 66.7809 0.591362
187 6 Pd 2.15201 4.09 66.7809 0.591362
189 6 Pd 0.214027 4.09 68.7726 0.590466
192 6 Pd 2.15201 6.02799 68.7726 0.590466
426 6 Pd 4.09 6.02799 66.7809 0.591362
427 6 Pd 6.02799 4.09 66.7809 0.591362
429 6 Pd 4.09 4.09 68.7726 0.590466
432 6 Pd 6.02799 6.02799 68.7726 0.590466
70 6 Pd 0.214027 2.15201 70.754 0.568088
71 6 Pd 2.15201 0.214027 70.754 0.568088
73 7 Pt 0.214027 0.214027 72.7265 0.789224
74 7 Pt 0.214027 2.15201 74.7 0.787651
75 7 Pt 2.15201 0.214027 74.7 0.787651
76 7 Pt 2.15201 2.15201 72.7265 0.789224
310 6 Pd 4.09 2.15201 70.754 0.568088
311 6 Pd 6.02799 0.214027 70.754 0.568088
313 7 Pt 4.09 0.214027 72.7265 0.789224
314 7 Pt 4.09 2.15201 74.7 0.787651
315 7 Pt 6.02799 0.214027 74.7 0.787651
316 7 Pt 6.02799 2.15201 72.7265 0.789224
190 6 Pd 0.214027 6.02799 70.754 0.568088
191 6 Pd 2.15201 4.09 70.754 0.568088
193 7 Pt 0.214027 4.09 72.7265 0.789224
194 7 Pt 0.214027 6.02799 74.7 0.787651
195 7 Pt 2.15201 4.09 74.7 0.787651
196 7 Pt 2.15201 6.02799 72.7265 0.789224
430 6 Pd 4.09 6.02799 70.754 0.568088
431 6 Pd 6.02799 4.09 70.754 0.568088
433 7 Pt 4.09 4.09 72.7265 0.789224
434 7 Pt 4.09 6.02799 74.7 0.787651
435 7 Pt 6.02799 4.09 74.7 0.787651
436 7 Pt 6.02799 6.02799 72.7265 0.789224
77 7 Pt 0.214027 0.214027 76.6779 0.788898
78 7 Pt 0.214027 2.15201 78.6298 0.793247
79 7 Pt 2.15201 0.214027 78.6298 0.793247
80 7 Pt 2.15201 2.15201 76.6779 0.788898
317 7 Pt 4.09 0.214027 76.6779 0.788898
318 7 Pt 4.09 2.15201 78.6298 0.793247
319 7 Pt 6.02799 0.214027 78.6298 0.793247
320 7 Pt 6.02799 2.15201 76.6779 0.788898
197 7 Pt 0.214027 4.09 76.6779 0.788898
198 7 Pt 0.214027 6.02799 78.6298 0.793247
199 7 Pt 2.15201 4.09 78.6298 0.793247
200 7 Pt 2.15201 6.02799 76.6779 0.788898
437 7 Pt 4.09 4.09 76.6779 0.788898
438 7 Pt 4.09 6.02799 78.6298 0.793247
439 7 Pt 6.02799 4.09 78.6298 0.793247
440 7 Pt 6.02799 6.02799 76.6779 0.788898
81 7 Pt 0.214027 0.214027 80.5956 0.775643
82 7 Pt 0.214027 2.15201 82.545 0.677773
83 7 Pt 2.15201 0.214027 82.545 0.677773
84 7 Pt 2.15201 2.15201 80.5956 0.775643
321 7 Pt 4.09 0.214027 80.5956 0.775643
322 7 Pt 4.09 2.15201 82.545 0.677773
323 7 Pt 6.02799 0.214027 82.545 0.677773
324 7 Pt 6.02799 2.15201 80.5956 0.775643
201 7 Pt 0.214027 4.09 80.5956 0.775643
202 7 Pt 0.214027 6.02799 82.545 0.677773
203 7 Pt 2.15201 4.09 82.545 0.677773
204 7 Pt 2.15201 6.02799 80.5956 0.775643
441 7 Pt 4.09 4.09 80.5956 0.775643
442 7 Pt 4.09 6.02799 82.545 0.677773
443 7 Pt 6.02799 4.09 82.545 0.677773
444 7 Pt 6.02799 6.02799 80.5956 0.775643
85 8 Rh 0.214027 0.214027 84.4301 0.534533
86 8 Rh 0.214027 2.15201 86.2136 0.608928
87 8 Rh 2.15201 0.214027 86.2136 0.608928
88 8 Rh 2.15201 2.15201 84.4301 0.534533
89 8 Rh 0.214027 0.214027 88.0168 0.595027
92 8 Rh 2.15201 2.15201 88.0168 0.595027
325 8 Rh 4.09 0.214027 84.4301 0.534533
326 8 Rh 4.09 2.15201 86.2136 0.608928
327 8 Rh 6.02799 0.214027 86.2136 0.608928
328 8 Rh 6.02799 2.15201 84.4301 0.534533
329 8 Rh 4.09 0.214027 88.0168 0.595027
332 8 Rh 6.02799 2.15201 88.0168 0.595027
205 8 Rh 0.214027 4.09 84.4301 0.534533
206 8 Rh 0.214027 6.02799 86.2136 0.608928
207 8 Rh 2.15201 4.09 86.2136 0.608928
208 8 Rh 2.15201 6.02799 84.4301 0.534533
209 8 Rh 0.214027 4.09 88.0168 0.595027
212 8 Rh 2.15201 6.02799 88.0168 0.595027
445 8 Rh 4.09 4.09 84.4301 0.534533
446 8 Rh 4.09 6.02799 86.2136 0.608928
447 8 Rh 6.02799 4.09 86.2136 0.608928
448 8 Rh 6.02799 6.02799 84.4301 0.534533
449 8 Rh 4.09 4.09 88.0168 0.595027
452 8 Rh 6.02799 6.02799 88.0168 0.595027
90 8 Rh 0.214027 2.15201 89.8114 0.603062
91 8 Rh 2.15201 0.214027 89.8114 0.603062
93 8 Rh 0.214027 0.214027 91.5985 0.586815
96 8 Rh 2.15201 2.15201 91.5985 0.586815
330 8 Rh 4.09 2.15201 89.8114 0.603062
331 8 Rh 6.02799 0.214027 89.8114 0.603062
333 8 Rh 4.09 0.214027 91.5985 0.586815
336 8 Rh 6.02799 2.15201 91.5985 0.586815
210 8 Rh 0.214027 6.02799 89.8114 0.603062
211 8 Rh 2.15201 4.09 89.8114 0.603062
213 8 Rh 0.214027 4.09 91.5985 0.586815
216 8 Rh 2.15201 6.02799 91.5985 0.586815
450 8 Rh 4.09 6.02799 89.8114 0.603062
451 8 Rh 6.02799 4.09 89.8114 0.603062
453 8 Rh 4.09 4.09 91.5985 0.586815
456 8 Rh 6.02799 6.02799 91.5985 0.586815
94 8 Rh 0.214027 2.15201 93.4143 0.575653
95 8 Rh 2.15201 0.214027 93.4143 0.575653
97 9 Ru 0.214027 0.214027 95.2106 0.533011
100 9 Ru 2.15201 2.15201 95.2106 0.533011
334 8 Rh 4.09 2.15201 93.4143 0.575653
335 8 Rh 6.02799 0.214027 93.4143 0.575653
337 9 Ru 4.09 0.214027 95.2106 0.533011
340 9 Ru 6.02799 2.15201 95.2106 0.533011
214 8 Rh 0.214027 6.02799 93.4143 0.575653
215 8 Rh 2.15201 4.09 93.4143 0.575653
217 9 Ru 0.214027 4.09 95.2106 0.533011
220 9 Ru 2.15201 6.02799 95.2106 0.533011
454 8 Rh 4.09 6.02799 93.4143 0.575653
455 8 Rh 6.02799 4.09 93.4143 0.575653
457 9 Ru 4.09 4.09 95.2106 0.533011
460 9 Ru 6.02799 6.02799 95.2106 0.533011
98 9 Ru 0.214027 2.15201 96.9677 0.559672
99 9 Ru 2.15201 0.214027 96.9677 0.559672
338 9 Ru 4.09 2.15201 96.9677 0.559672
339 9 Ru 6.02799 0.214027 96.9677 0.559672
218 9 Ru 0.214027 6.02799 96.9677 0.559672
219 9 Ru 2.15201 4.09 96.9677 0.559672
458 9 Ru 4.09 6.02799 96.9677 0.559672
459 9 Ru 6.02799 4.09 96.9677 0.559672
101 9 Ru 0.214027 0.214027 98.7774 0.579234
102 9 Ru 0.214027 2.15201 100.554 0.580446
103 9 Ru 2.15201 0.214027 100.554 0.580446
104 9 Ru 2.15201 2.15201 98.7774 0.579234
341 9 Ru 4.09 0.214027 98.7774 0.579234
342 9 Ru 4.09 2.15201 100.554 0.580446
343 9 Ru 6.02799 0.214027 100.554 0.580446
344 9 Ru 6.02799 2.15201 98.7774 0.579234
221 9 Ru 0.214027 4.09 98.7774 0.579234
222 9 Ru 0.214027 6.02799 100.554 0.580446
223 9 Ru 2.15201 4.09 100.554 0.580446
224 9 Ru 2.15201 6.02799 98.7774 0.579234
461 9 Ru 4.09 4.09 98.7774 0.579234
462 9 Ru 4.09 6.02799 100.554 0.580446
463 9 Ru 6.02799 4.09 100.554 0.580446
464 9 Ru 6.02799 6.02799 98.7774 0.579234
105 9 Ru 0.214027 0.214027 102.372 0.494886
106 9 Ru 0.214027 2.15201 104.107 0.684467
107 9 Ru 2.15201 0.214027 104.107 0.684467
108 9 Ru 2.15201 2.15201 102.372 0.494886
345 9 Ru 4.09 0.214027 102.372 0.494886
346 9 Ru 4.09 2.15201 104.107 0.684467
347 9 Ru 6.02799 0.214027 104.107 0.684467
348 9 Ru 6.02799 2.15201 102.372 0.494886
225 9 Ru 0.214027 4.09 102.372 0.494886
226 9 Ru 0.214027 6.02799 104.107 0.684467
227 9 Ru 2.15201 4.09 104.107 0.684467
228 9 Ru 2.15201 6.02799 102.372 0.494886
465 9 Ru 4.09 4.09 102.372 0.494886
466 9 Ru 4.09 6.02799 104.107 0.684467
467 9 Ru 6.02799 4.09 104.107 0.684467
468 9 Ru 6.02799 6.02799 102.372 0.494886
109 10 Sc 0.214027 0.214027 106.032 0.495077
110 10 Sc 0.214027 2.15201 108.599 0.673538
111 10 Sc 2.15201 0.214027 108.599 0.673538
112 10 Sc 2.15201 2.15201 106.032 0.495077
349 10 Sc 4.09 0.214027 106.032 0.495077
350 10 Sc 4.09 2.15201 108.599 0.673538
351 10 Sc 6.02799 0.214027 108.599 0.673538
352 10 Sc 6.02799 2.15201 106.032 0.495077
229 10 Sc 0.214027 4.09 106.032 0.495077
230 10 Sc 0.214027 6.02799 108.599 0.673538
231 10 Sc 2.15201 4.09 108.599 0.673538
232 10 Sc 2.15201 6.02799 106.032 0.495077
469 10 Sc 4.09 4.09 106.032 0.495077
470 10 Sc 4.09 6.02799 108.599 0.673538
471 10 Sc 6.02799 4.09 108.599 0.673538
472 10 Sc 6.02799 6.02799 106.032 0.495077
113 10 Sc 0.214027 0.214027 111.037 0.687478
114 10 Sc 0.214027 2.15201 113.525 0.719866
115 10 Sc 2.15201 0.214027 113.525 0.719866
116 10 Sc 2.15201 2.15201 111.037 0.687478
353 10 Sc 4.09 0.214027 111.037 0.687478
354 10 Sc 4.09 2.15201 113.525 0.719866
355 10 Sc 6.02799 0.214027 113.525 0.719866
356 10 Sc 6.02799 2.15201 111.037 0.687478
233 10 Sc 0.214027 4.09 111.037 0.687478
234 10 Sc 0.214027 6.02799 113.525 0.719866
235 10 Sc 2.15201 4.09 113.525 0.719866
236 10 Sc 2.15201 6.02799 111.037 0.687478
473 10 Sc 4.09 4.09 111.037 0.687478
474 10 Sc 4.09 6.02799 113.525 0.719866
475 10 Sc 6.02799 4.09 113.525 0.719866
476 10 Sc 6.02799 6.02799 111.037 0.687478
117 10 Sc 0.214027 0.214027 116.085 0.752781
120 10 Sc 2.15201 2.15201 116.085 0.752781
357 10 Sc 4.09 0.214027 116.085 0.752781
360 10 Sc 6.02799 2.15201 116.085 0.752781
237 10 Sc 0.214027 4.09 116.085 0.752781
240 10 Sc 2.15201 6.02799 116.085 0.752781
477 10 Sc 4.09 4.09 116.085 0.752781
480 10 Sc 6.02799 6.02799 116.085 0.752781
118 10 Sc 0.214027 2.15201 118.586 3.95516
119 10 Sc 2.15201 0.214027 118.586 3.95516
358 10 Sc 4.09 2.15201 118.586 3.95516
359 10 Sc 6.02799 0.214027 118.586 3.95516
238 10 Sc 0.214027 6.02799 118.586 3.95516
239 10 Sc 2.15201 4.09 118.586 3.95516
478 10 Sc 4.09 6.02799 118.586 3.95516
479 10 Sc 6.02799 4.09 118.586 3.95516
ITEM: TIMESTEP
50
ITEM: NUMBER OF ATOMS
480
ITEM: BOX BOUNDS pp pp pp
2.1272073828192894e-01 7.9672792617180779e+00
2.0889066339172135e-01 7.9711093366082917e+00
-5.2218666035996222e+00 1.3792186660359923e+02
ITEM: ATOMS id type element xu yu zu f_grace_gamma
1 10 Sc 0.254145 0.0946964 2.80398 3.97201
4 2 Au 2.06057 2.10528 2.83267 2.95682
241 10 Sc 3.86693 -0.102854 2.74767 4.05777
244 1 Ag 6.016 2.09569 2.71494 2.21299
121 1 Ag 0.192998 4.00888 2.63952 2.58868
124 4 Ir 2.19391 5.96679 2.90432 2.18145
361 1 Ag 3.83407 3.93134 2.8212 2.02366
364 1 Ag 6.1542 6.02361 2.94704 1.63144
2 1 Ag 0.177581 2.12436 5.00382 0.484561
3 1 Ag 2.02542 -0.0506242 4.96009 0.42809
5 1 Ag 0.189335 0.177709 7.02345 0.530007
8 2 Au 2.06146 2.08144 7.06793 0.51842
242 1 Ag 4.02837 2.17309 4.95113 0.543242
243 6 Pd 6.0306 0.427437 4.85967 0.729184
245 2 Au 4.13453 0.330516 7.26624 0.515905
248 1 Ag 6.08355 2.15188 7.12971 0.559988
122 1 Ag 0.124575 5.93663 4.96707 0.456176
123 6 Pd 2.06414 4.14839 4.85574 0.689002
125 2 Au 0.334856 4.20064 6.99631 0.507668
128 1 Ag 2.05408 6.23331 7.14169 0.5621
362 1 Ag 4.06204 6.08156 5.04828 0.465173
363 6 Pd 5.95408 4.02326 4.74685 0.878152
365 1 Ag 4.00539 4.18763 6.92136 0.57018
368 2 Au 6.00861 6.06695 7.17992 0.522489
6 1 Ag 0.257429 2.22101 9.24397 0.520261
7 1 Ag 2.13207 0.249349 9.30778 0.460669
9 1 Ag 0.127392 0.105476 11.3787 0.470006
12 10 Sc 2.19468 2.03968 11.4634 0.884424
246 1 Ag 4.14034 2.27512 9.27389 0.545738
247 1 Ag 6.13798 0.117592 9.28957 0.495955
249 5 Ni 4.25773 0.298388 11.2574 0.647105
252 1 Ag 5.98929 2.03423 11.1977 0.671696
126 1 Ag 0.179611 6.22382 9.20348 0.518027
127 1 Ag 2.1041 4.17042 9.41824 0.531147
129 1 Ag -0.0434009 3.9884 11.3544 0.524574
132 1 Ag 2.17526 6.24917 11.0726 0.635401
366 1 Ag 4.19543 5.7928 9.24513 0.587528
367 1 Ag 6.13709 4.05626 9.15495 0.557643
369 2 Au 4.09316 4.03593 11.3689 0.515112
372 1 Ag 6.12092 6.07907 11.4192 0.494676
10 5 Ni 0.176181 2.01925 13.2568 0.539276
11 1 Ag 2.13553 0.180753 13.3719 0.403327
13 2 Au 0.124812 0.124206 15.5785 0.41888
16 6 Pd 2.11516 2.07479 15.8514 0.60123
250 1 Ag 4.13277 2.12954 13.4371 0.444101
251 1 Ag 6.11977 0.203219 13.5131 0.546548
253 2 Au 4.17238 0.166611 15.6496 0.483129
256 2 Au 5.98482 2.14699 15.6716 0.49409
130 6 Pd 0.36022 6.13244 13.4909 0.816128
131 1 Ag 2.04483 4.11803 13.5809 0.554952
133 2 Au 0.252049 4.12616 15.6583 0.468342
136 2 Au 2.19809 6.03198 15.4858 0.477143
370 1 Ag 4.04803 6.0835 13.5263 0.513752
371 1 Ag 6.05945 4.08296 13.3975 0.51654
373 1 Ag 4.17614 4.08895 15.4988 0.46123
376 3 Cu 6.16216 6.26336 15.6787 0.697189
14 10 Sc -0.186075 2.05337 17.6799 0.723557
15 2 Au 2.13476 0.310425 17.8956 0.402811
17 6 Pd 0.283471 0.397696 19.8999 0.41898
20 10 Sc 2.15287 1.99415 20.1646 0.587721
254 6 Pd 4.04585 2.2336 17.9196 0.612728
255 1 Ag 5.97554 0.156013 17.8385 0.355182
257 10 Sc 4.24438 -0.0555074 19.7423 0.5198
260 2 Au 5.91958 2.16936 19.9637 0.383326
134 6 Pd 0.224924 5.98056 18.1338 0.41711
135 10 Sc 2.06439 4.40527 17.6882 0.740632
137 2 Au 0.259464 3.98068 19.8334 0.362412
140 6 Pd 2.08941 6.13797 20.1906 0.518641
374 2 Au 4.11791 6.022 17.7589 0.58167
375 3 Cu 6.0463 4.3609 17.6653 0.616094
377 2 Au 4.10212 4.09438 19.8664 0.460555
380 2 Au 6.07958 6.09042 20.2733 0.455185
18 6 Pd 0.187905 2.20915 22.14 0.409466
19 1 Ag 2.06381 0.292307 22.2686 0.454087
258 2 Au 4.07861 2.06963 22.1827 0.459339
259 10 Sc 6.12571 0.416962 22.1787 0.698179
138 2 Au 0.128338 6.15682 22.2327 0.354536
139 2 Au 2.29075 4.11378 22.1323 0.404065
378 2 Au 4.17342 6.09439 22.3511 0.409964
379 2 Au 5.9783 4.03036 22.1499 0.558227
21 10 Sc 0.292961 0.365906 24.5428 0.865634
24 6 Pd 2.21432 2.24313 24.576 0.519016
261 1 Ag 4.13543 0.489075 24.327 0.574618
264 2 Au 6.04217 2.32313 24.492 0.364848
141 2 Au 0.293923 4.02985 24.5099 0.624134
144 3 Cu 2.24144 6.20811 24.567 0.648136
381 2 Au 3.94885 4.12479 24.5778 0.425413
384 2 Au 5.90676 5.98151 24.5189 0.494333
22 2 Au 0.24526 2.24191 26.6907 0.407897
23 2 Au 2.12717 0.227087 26.659 0.373914
262 2 Au 4.21896 2.11911 26.8629 0.432206
263 2 Au 6.08627 0.277776 26.6442 0.438573
142 2 Au 0.167538 6.0197 26.6179 0.404704
143 6 Pd 2.28696 4.18315 26.7955 0.518338
382 6 Pd 4.01811 5.92099 26.6057 0.40484
383 2 Au 5.94074 4.03808 26.7111 0.370559
25 5 Ni 0.224401 0.357869 28.4828 0.32446
26 3 Cu 0.19601 2.05808 30.1244 0.390752
27 7 Pt 2.06153 0.197225 30.1714 0.392578
28 3 Cu 2.05395 2.21958 28.3518 0.506166
265 3 Cu 3.81937 0.215286 28.5499 0.434766
266 3 Cu 3.90571 2.18139 30.2559 0.482018
267 3 Cu 6.0742 0.390215 30.5053 0.560023
268 3 Cu 6.02019 1.90963 28.9267 0.541095
145 3 Cu 0.270472 4.0958 28.6682 0.518012
146 3 Cu 0.245974 5.88889 30.0837 0.409058
147 3 Cu 2.08559 4.17471 30.4771 0.464182
148 5 Ni 2.22776 5.93903 28.6179 0.343522
385 6 Pd 4.15386 4.05596 28.7882 0.411876
386 5 Ni 4.15809 6.25012 30.0646 0.317941
387 5 Ni 6.15574 3.96585 30.1492 0.361421
388 10 Sc 5.86483 6.21111 28.4703 0.541075
29 10 Sc 0.352918 0.144328 31.9512 0.335358
30 7 Pt 0.238491 2.0976 33.5878 0.36058
31 3 Cu 2.10339 0.186265 33.5642 0.517477
32 5 Ni 2.07941 2.34564 31.7978 0.431625
269 3 Cu 4.05521 0.476639 31.8851 0.433482
270 3 Cu 3.84964 2.00738 33.4699 0.462424
271 3 Cu 5.99893 0.206543 33.4817 0.558914
272 3 Cu 5.79119 2.22124 31.9017 0.544614
149 5 Ni -0.0218411 3.97182 31.7312 0.408014
150 5 Ni 0.437752 5.95432 33.779 0.4401
151 3 Cu 1.89774 4.06042 33.38 0.483049
152 3 Cu 2.30194 5.93328 31.8097 0.408635
389 3 Cu 4.0329 4.01188 32.0554 0.483578
390 3 Cu 3.98812 5.8789 33.6959 0.437282
391 5 Ni 5.93546 4.12282 33.5266 0.334354
392 2 Au 6.10898 6.12829 31.9003 0.528883
33 3 Cu 0.211709 0.0045741 35.3887 0.414044
36 3 Cu 2.3535 1.89304 35.1338 0.547823
273 6 Pd 4.15203 0.0292794 35.331 0.429218
276 10 Sc 6.05819 2.17777 35.2469 0.509412
153 3 Cu 0.380745 4.16352 35.1351 0.378417
156 5 Ni 2.1246 6.02012 35.3238 0.458208
393 3 Cu 3.93972 4.24296 35.1931 0.469383
396 3 Cu 6.23907 5.97223 35.1653 0.466486
34 6 Pd 0.281439 1.97793 37.0885 0.449431
35 3 Cu 2.2544 0.103902 36.9405 0.396397
37 8 Rh -0.0513898 0.155524 39.0053 0.408976
40 9 Ru 2.2195 2.14979 39.0356 0.436042
274 3 Cu 4.17624 2.11246 37.0203 0.434854
275 3 Cu 5.93274 -0.027999 37.0555 0.381632
277 8 Rh 4.14335 0.178759 38.8507 0.381743
280 9 Ru 5.96262 1.9781 39.1509 0.411724
154 3 Cu 0.288117 5.77022 36.8096 0.361496
155 7 Pt 2.23173 4.0619 37.0753 0.46004
157 4 Ir 0.412644 3.95557 38.922 0.308103
160 10 Sc 2.19252 6.04265 38.7215 0.522429
394 3 Cu 4.41918 5.93944 37.0548 0.389565
395 6 Pd 6.06676 4.06944 36.8664 0.459177
397 9 Ru 4.24277 3.95973 38.8766 0.537261
400 4 Ir 5.96474 5.89965 38.8458 0.404838
38 4 Ir 0.172069 2.36017 40.8969 0.420256
39 4 Ir 2.05732 0.279319 40.607 0.355072
41 4 Ir 0.134358 0.1894 42.7492 0.580721
44 9 Ru 2.15484 2.18291 42.6621 0.557335
278 4 Ir 4.08966 2.29627 40.8061 0.449664
279 4 Ir 6.13927 0.251884 40.9237 0.406946
281 7 Pt 4.0544 0.393683 42.7398 0.538765
284 5 Ni 5.97669 2.13522 42.7116 0.588555
158 4 Ir 0.257382 6.04621 40.7349 0.44856
159 9 Ru 2.30325 4.0244 40.6772 0.373915
161 4 Ir 0.269587 4.15595 42.8231 0.663076
164 4 Ir 1.95166 6.15687 42.6587 0.571738
398 4 Ir 4.0545 6.01902 40.722 0.45867
399 4 Ir 6.02359 4.09121 40.7249 0.455711
401 4 Ir 4.15745 4.01922 42.6837 0.520701
404 4 Ir 6.11599 5.94936 42.763 0.523255
42 7 Pt 0.206045 2.08825 44.7004 0.470437
43 4 Ir 2.27049 0.211641 44.7812 0.513196
45 9 Ru 0.224655 0.245149 46.7118 0.476185
408 9 Ru 5.80182 5.99093 46.3534 0.460212
405 9 Ru 4.02907 4.05115 46.9249 0.505593
48 4 Ir 2.26463 2.06376 46.58 0.38378
282 4 Ir 4.08229 2.20746 44.8256 0.532519
283 9 Ru 6.07435 0.147767 44.6767 0.4877
285 4 Ir 4.13327 0.175232 46.6277 0.421789
403 4 Ir 5.91419 4.11304 44.8426 0.443968
402 4 Ir 3.94696 5.97563 44.6883 0.493717
288 4 Ir 6.05473 1.99263 46.8169 0.370864
162 4 Ir 0.138157 6.11482 44.8566 0.391675
163 4 Ir 2.28442 4.12833 44.567 0.449451
165 10 Sc 0.484724 4.00591 46.547 0.571031
168 8 Rh 2.02576 6.03709 46.7596 0.456301
49 5 Ni 0.053016 0.2003 50.4257 0.422364
50 5 Ni 0.179948 2.15618 52.0988 0.39809
51 5 Ni 2.29382 0.191175 52.0422 0.379227
52 3 Cu 1.98098 2.02336 50.3252 0.414658
289 5 Ni 4.22843 0.176474 50.4685 0.422516
290 2 Au 4.07421 2.19282 52.1098 0.439465
291 5 Ni 5.96608 0.288772 52.1215 0.353726
292 5 Ni 6.27209 2.00961 50.5809 0.37886
169 7 Pt 0.182211 3.98022 50.4649 0.296911
170 7 Pt 0.135763 5.97659 52.1041 0.331715
171 5 Ni 2.09451 4.00449 52.3584 0.34539
172 10 Sc 2.29526 6.06331 50.4623 0.508079
409 5 Ni 4.11177 4.08129 50.5893 0.390645
410 8 Rh 4.19128 6.03387 52.2397 0.492971
411 5 Ni 5.90346 4.29613 52.0947 0.312637
412 5 Ni 5.82565 6.12998 50.2678 0.436195
46 4 Ir 0.172166 2.04926 48.5818 0.436649
47 8 Rh 2.11705 0.228258 48.5302 0.455335
407 10 Sc 5.95423 4.00256 48.7281 0.508505
406 4 Ir 4.18008 6.01032 48.4909 0.436909
286 4 Ir 4.10517 2.0404 48.6527 0.522135
287 8 Rh 6.04838 0.274335 48.7233 0.445118
166 8 Rh 0.158331 6.13747 48.5413 0.44149
167 4 Ir 2.08986 4.04234 48.6394 0.323894
53 10 Sc 0.403051 0.29181 53.4946 0.51722
54 7 Pt 0.318686 2.04636 55.4661 0.38574
55 5 Ni 2.19694 -0.01722 55.4611 0.415621
56 5 Ni 2.26498 2.24294 53.8397 0.35989
293 5 Ni 4.04083 0.322316 53.8361 0.445177
294 5 Ni 4.18515 2.29645 55.1983 0.354888
295 10 Sc 5.72839 0.493224 55.6527 0.474113
296 5 Ni 6.16305 2.28878 53.7842 0.372516
173 9 Ru 0.178564 3.99957 53.8468 0.638296
174 5 Ni 0.349719 5.90006 55.35 0.332993
175 5 Ni 2.0083 4.16969 55.453 0.552207
176 5 Ni 2.27662 5.83207 53.8996 0.402865
413 5 Ni 4.06964 4.08355 53.8363 0.497906
414 5 Ni 4.05947 5.95538 55.2477 0.491597
415 5 Ni 6.06023 4.06166 55.3241 0.43258
416 5 Ni 5.97836 6.15183 53.9178 0.481822
57 5 Ni 0.201594 0.0995156 57.1434 0.388083
60 7 Pt 2.21802 2.12323 57.1442 0.465718
297 5 Ni 3.8977 0.102731 57.2196 0.308227
300 5 Ni 6.06118 2.12271 57.2787 0.398064
177 5 Ni 0.287417 3.95934 57.1368 0.479214
180 5 Ni 2.33634 6.04351 57.0776 0.472199
417 7 Pt 4.0722 3.94778 57.1781 0.452729
420 7 Pt 5.97752 5.99964 56.866 0.36362
58 5 Ni 0.054884 2.00202 58.6701 0.415867
59 5 Ni 2.15188 -0.0957799 58.7937 0.318427
61 2 Au 0.214709 0.207687 60.6816 0.471392
64 1 Ag 2.10835 2.17145 60.5474 0.604634
298 3 Cu 4.21824 2.07693 58.7983 0.522885