ITEM: TIMESTEP
0
ITEM: NUMBER OF ATOMS
480
ITEM: BOX BOUNDS pp pp pp
0.0000000000000000e+00 8.1799999999999997e+00
0.0000000000000000e+00 8.1799999999999997e+00
-1.0000000000000000e+01 1.4269999999999999e+02
ITEM: ATOMS id type xu yu zu f_grace_gamma
1 1 0 0 0 2.13317
2 1 0 2.045 2.045 0.708381
3 1 2.045 0 2.045 0.708381
4 1 2.045 2.045 0 2.13317
5 1 0 0 4.09 0.665681
8 1 2.045 2.045 4.09 0.665681
241 1 4.09 0 0 2.13317
242 1 4.09 2.045 2.045 0.708381
243 1 6.135 0 2.045 0.708381
244 1 6.135 2.045 0 2.13317
245 1 4.09 0 4.09 0.665681
248 1 6.135 2.045 4.09 0.665681
121 1 0 4.09 0 2.13317
122 1 0 6.135 2.045 0.708381
123 1 2.045 4.09 2.045 0.708381
124 1 2.045 6.135 0 2.13317
125 1 0 4.09 4.09 0.665681
128 1 2.045 6.135 4.09 0.665681
361 1 4.09 4.09 0 2.13317
362 1 4.09 6.135 2.045 0.708381
363 1 6.135 4.09 2.045 0.708381
364 1 6.135 6.135 0 2.13317
365 1 4.09 4.09 4.09 0.665681
368 1 6.135 6.135 4.09 0.665681
6 1 0 2.045 6.135 0.665681
7 1 2.045 0 6.135 0.665681
9 1 0 0 8.18 0.669113
12 1 2.045 2.045 8.18 0.669113
246 1 4.09 2.045 6.135 0.665681
247 1 6.135 0 6.135 0.665681
249 1 4.09 0 8.18 0.669113
252 1 6.135 2.045 8.18 0.669113
126 1 0 6.135 6.135 0.665681
127 1 2.045 4.09 6.135 0.665681
129 1 0 4.09 8.18 0.669113
132 1 2.045 6.135 8.18 0.669113
366 1 4.09 6.135 6.135 0.665681
367 1 6.135 4.09 6.135 0.665681
369 1 4.09 4.09 8.18 0.669113
372 1 6.135 6.135 8.18 0.669113
10 1 0 2.045 10.225 0.685127
11 1 2.045 0 10.225 0.685127
13 2 0 0 12.27 0.507787
16 2 2.045 2.045 12.27 0.507787
250 1 4.09 2.045 10.225 0.685127
251 1 6.135 0 10.225 0.685127
253 2 4.09 0 12.27 0.507787
256 2 6.135 2.045 12.27 0.507787
130 1 0 6.135 10.225 0.685127
131 1 2.045 4.09 10.225 0.685127
133 2 0 4.09 12.27 0.507787
136 2 2.045 6.135 12.27 0.507787
370 1 4.09 6.135 10.225 0.685127
371 1 6.135 4.09 10.225 0.685127
373 2 4.09 4.09 12.27 0.507787
376 2 6.135 6.135 12.27 0.507787
14 2 0 2.045 14.315 0.507099
15 2 2.045 0 14.315 0.507099
17 2 0 0 16.36 0.502639
18 2 0 2.045 18.405 0.502639
19 2 2.045 0 18.405 0.502639
20 2 2.045 2.045 16.36 0.502639
254 2 4.09 2.045 14.315 0.507099
255 2 6.135 0 14.315 0.507099
257 2 4.09 0 16.36 0.502639
258 2 4.09 2.045 18.405 0.502639
259 2 6.135 0 18.405 0.502639
260 2 6.135 2.045 16.36 0.502639
134 2 0 6.135 14.315 0.507099
135 2 2.045 4.09 14.315 0.507099
137 2 0 4.09 16.36 0.502639
138 2 0 6.135 18.405 0.502639
139 2 2.045 4.09 18.405 0.502639
140 2 2.045 6.135 16.36 0.502639
374 2 4.09 6.135 14.315 0.507099
375 2 6.135 4.09 14.315 0.507099
377 2 4.09 4.09 16.36 0.502639
378 2 4.09 6.135 18.405 0.502639
379 2 6.135 4.09 18.405 0.502639
380 2 6.135 6.135 16.36 0.502639
21 2 0 0 20.45 0.49985
22 2 0 2.045 22.495 0.453494
23 2 2.045 0 22.495 0.453494
24 2 2.045 2.045 20.45 0.49985
261 2 4.09 0 20.45 0.49985
262 2 4.09 2.045 22.495 0.453494
263 2 6.135 0 22.495 0.453494
264 2 6.135 2.045 20.45 0.49985
141 2 0 4.09 20.45 0.49985
142 2 0 6.135 22.495 0.453494
143 2 2.045 4.09 22.495 0.453494
144 2 2.045 6.135 20.45 0.49985
381 2 4.09 4.09 20.45 0.49985
382 2 4.09 6.135 22.495 0.453494
383 2 6.135 4.09 22.495 0.453494
384 2 6.135 6.135 20.45 0.49985
25 3 0 0 24.54 0.834981
26 3 0 2.045 26.585 0.812233
27 3 2.045 0 26.585 0.812233
28 3 2.045 2.045 24.54 0.834981
265 3 4.09 0 24.54 0.834981
266 3 4.09 2.045 26.585 0.812233
267 3 6.135 0 26.585 0.812233
268 3 6.135 2.045 24.54 0.834981
145 3 0 4.09 24.54 0.834981
146 3 0 6.135 26.585 0.812233
147 3 2.045 4.09 26.585 0.812233
148 3 2.045 6.135 24.54 0.834981
385 3 4.09 4.09 24.54 0.834981
386 3 4.09 6.135 26.585 0.812233
387 3 6.135 4.09 26.585 0.812233
388 3 6.135 6.135 24.54 0.834981
29 3 0 0 28.63 0.820151
30 3 0 2.045 30.675 0.820151
31 3 2.045 0 30.675 0.820151
32 3 2.045 2.045 28.63 0.820151
33 3 0 0 32.72 0.794148
36 3 2.045 2.045 32.72 0.794148
269 3 4.09 0 28.63 0.820151
270 3 4.09 2.045 30.675 0.820151
271 3 6.135 0 30.675 0.820151
272 3 6.135 2.045 28.63 0.820151
273 3 4.09 0 32.72 0.794148
276 3 6.135 2.045 32.72 0.794148
149 3 0 4.09 28.63 0.820151
150 3 0 6.135 30.675 0.820151
151 3 2.045 4.09 30.675 0.820151
152 3 2.045 6.135 28.63 0.820151
153 3 0 4.09 32.72 0.794148
156 3 2.045 6.135 32.72 0.794148
389 3 4.09 4.09 28.63 0.820151
390 3 4.09 6.135 30.675 0.820151
391 3 6.135 4.09 30.675 0.820151
392 3 6.135 6.135 28.63 0.820151
393 3 4.09 4.09 32.72 0.794148
396 3 6.135 6.135 32.72 0.794148
34 3 0 2.045 34.765 0.687262
35 3 2.045 0 34.765 0.687262
37 4 0 0 36.81 0.639982
40 4 2.045 2.045 36.81 0.639982
274 3 4.09 2.045 34.765 0.687262
275 3 6.135 0 34.765 0.687262
277 4 4.09 0 36.81 0.639982
280 4 6.135 2.045 36.81 0.639982
154 3 0 6.135 34.765 0.687262
155 3 2.045 4.09 34.765 0.687262
157 4 0 4.09 36.81 0.639982
160 4 2.045 6.135 36.81 0.639982
394 3 4.09 6.135 34.765 0.687262
395 3 6.135 4.09 34.765 0.687262
397 4 4.09 4.09 36.81 0.639982
400 4 6.135 6.135 36.81 0.639982
38 4 0 2.045 38.855 0.969545
39 4 2.045 0 38.855 0.969545
41 4 0 0 40.9 1.05801
44 4 2.045 2.045 40.9 1.05801
278 4 4.09 2.045 38.855 0.969545
279 4 6.135 0 38.855 0.969545
281 4 4.09 0 40.9 1.05801
284 4 6.135 2.045 40.9 1.05801
158 4 0 6.135 38.855 0.969545
159 4 2.045 4.09 38.855 0.969545
161 4 0 4.09 40.9 1.05801
164 4 2.045 6.135 40.9 1.05801
398 4 4.09 6.135 38.855 0.969545
399 4 6.135 4.09 38.855 0.969545
401 4 4.09 4.09 40.9 1.05801
404 4 6.135 6.135 40.9 1.05801
42 4 0 2.045 42.945 1.05801
43 4 2.045 0 42.945 1.05801
45 4 0 0 44.99 0.992967
46 4 0 2.045 47.035 0.75628
47 4 2.045 0 47.035 0.75628
48 4 2.045 2.045 44.99 0.992967
282 4 4.09 2.045 42.945 1.05801
283 4 6.135 0 42.945 1.05801
285 4 4.09 0 44.99 0.992967
286 4 4.09 2.045 47.035 0.75628
287 4 6.135 0 47.035 0.75628
288 4 6.135 2.045 44.99 0.992967
162 4 0 6.135 42.945 1.05801
163 4 2.045 4.09 42.945 1.05801
165 4 0 4.09 44.99 0.992967
166 4 0 6.135 47.035 0.75628
167 4 2.045 4.09 47.035 0.75628
168 4 2.045 6.135 44.99 0.992967
402 4 4.09 6.135 42.945 1.05801
403 4 6.135 4.09 42.945 1.05801
405 4 4.09 4.09 44.99 0.992967
406 4 4.09 6.135 47.035 0.75628
407 4 6.135 4.09 47.035 0.75628
408 4 6.135 6.135 44.99 0.992967
49 5 0 0 49.08 0.642745
50 5 0 2.045 51.125 0.469913
51 5 2.045 0 51.125 0.469913
52 5 2.045 2.045 49.08 0.642745
289 5 4.09 0 49.08 0.642745
290 5 4.09 2.045 51.125 0.469913
291 5 6.135 0 51.125 0.469913
292 5 6.135 2.045 49.08 0.642745
169 5 0 4.09 49.08 0.642745
170 5 0 6.135 51.125 0.469913
171 5 2.045 4.09 51.125 0.469913
172 5 2.045 6.135 49.08 0.642745
409 5 4.09 4.09 49.08 0.642745
410 5 4.09 6.135 51.125 0.469913
411 5 6.135 4.09 51.125 0.469913
412 5 6.135 6.135 49.08 0.642745
53 5 0 0 53.17 0.442909
54 5 0 2.045 55.215 0.442909
55 5 2.045 0 55.215 0.442909
56 5 2.045 2.045 53.17 0.442909
293 5 4.09 0 53.17 0.442909
294 5 4.09 2.045 55.215 0.442909
295 5 6.135 0 55.215 0.442909
296 5 6.135 2.045 53.17 0.442909
173 5 0 4.09 53.17 0.442909
174 5 0 6.135 55.215 0.442909
175 5 2.045 4.09 55.215 0.442909
176 5 2.045 6.135 53.17 0.442909
413 5 4.09 4.09 53.17 0.442909
414 5 4.09 6.135 55.215 0.442909
415 5 6.135 4.09 55.215 0.442909
416 5 6.135 6.135 53.17 0.442909
57 5 0 0 57.26 0.465035
58 5 0 2.045 59.305 0.585494
59 5 2.045 0 59.305 0.585494
60 5 2.045 2.045 57.26 0.465035
61 6 0 0 61.35 0.704721
64 6 2.045 2.045 61.35 0.704721
297 5 4.09 0 57.26 0.465035
298 5 4.09 2.045 59.305 0.585494
299 5 6.135 0 59.305 0.585494
300 5 6.135 2.045 57.26 0.465035
301 6 4.09 0 61.35 0.704721
304 6 6.135 2.045 61.35 0.704721
177 5 0 4.09 57.26 0.465035
178 5 0 6.135 59.305 0.585494
179 5 2.045 4.09 59.305 0.585494
180 5 2.045 6.135 57.26 0.465035
181 6 0 4.09 61.35 0.704721
184 6 2.045 6.135 61.35 0.704721
417 5 4.09 4.09 57.26 0.465035
418 5 4.09 6.135 59.305 0.585494
419 5 6.135 4.09 59.305 0.585494
420 5 6.135 6.135 57.26 0.465035
421 6 4.09 4.09 61.35 0.704721
424 6 6.135 6.135 61.35 0.704721
62 6 0 2.045 63.395 0.743166
63 6 2.045 0 63.395 0.743166
65 6 0 0 65.44 0.763841
68 6 2.045 2.045 65.44 0.763841
302 6 4.09 2.045 63.395 0.743166
303 6 6.135 0 63.395 0.743166
305 6 4.09 0 65.44 0.763841
308 6 6.135 2.045 65.44 0.763841
182 6 0 6.135 63.395 0.743166
183 6 2.045 4.09 63.395 0.743166
185 6 0 4.09 65.44 0.763841
188 6 2.045 6.135 65.44 0.763841
422 6 4.09 6.135 63.395 0.743166
423 6 6.135 4.09 63.395 0.743166
425 6 4.09 4.09 65.44 0.763841
428 6 6.135 6.135 65.44 0.763841
66 6 0 2.045 67.485 0.763841
67 6 2.045 0 67.485 0.763841
69 6 0 0 69.53 0.785413
72 6 2.045 2.045 69.53 0.785413
306 6 4.09 2.045 67.485 0.763841
307 6 6.135 0 67.485 0.763841
309 6 4.09 0 69.53 0.785413
312 6 6.135 2.045 69.53 0.785413
186 6 0 6.135 67.485 0.763841
187 6 2.045 4.09 67.485 0.763841
189 6 0 4.09 69.53 0.785413
192 6 2.045 6.135 69.53 0.785413
426 6 4.09 6.135 67.485 0.763841
427 6 6.135 4.09 67.485 0.763841
429 6 4.09 4.09 69.53 0.785413
432 6 6.135 6.135 69.53 0.785413
70 6 0 2.045 71.575 0.823178
71 6 2.045 0 71.575 0.823178
73 7 0 0 73.62 0.568661
74 7 0 2.045 75.665 0.659724
75 7 2.045 0 75.665 0.659724
76 7 2.045 2.045 73.62 0.568661
310 6 4.09 2.045 71.575 0.823178
311 6 6.135 0 71.575 0.823178
313 7 4.09 0 73.62 0.568661
314 7 4.09 2.045 75.665 0.659724
315 7 6.135 0 75.665 0.659724
316 7 6.135 2.045 73.62 0.568661
190 6 0 6.135 71.575 0.823178
191 6 2.045 4.09 71.575 0.823178
193 7 0 4.09 73.62 0.568661
194 7 0 6.135 75.665 0.659724
195 7 2.045 4.09 75.665 0.659724
196 7 2.045 6.135 73.62 0.568661
430 6 4.09 6.135 71.575 0.823178
431 6 6.135 4.09 71.575 0.823178
433 7 4.09 4.09 73.62 0.568661
434 7 4.09 6.135 75.665 0.659724
435 7 6.135 4.09 75.665 0.659724
436 7 6.135 6.135 73.62 0.568661
77 7 0 0 77.71 0.656556
78 7 0 2.045 79.755 0.656556
79 7 2.045 0 79.755 0.656556
80 7 2.045 2.045 77.71 0.656556
317 7 4.09 0 77.71 0.656556
318 7 4.09 2.045 79.755 0.656556
319 7 6.135 0 79.755 0.656556
320 7 6.135 2.045 77.71 0.656556
197 7 0 4.09 77.71 0.656556
198 7 0 6.135 79.755 0.656556
199 7 2.045 4.09 79.755 0.656556
200 7 2.045 6.135 77.71 0.656556
437 7 4.09 4.09 77.71 0.656556
438 7 4.09 6.135 79.755 0.656556
439 7 6.135 4.09 79.755 0.656556
440 7 6.135 6.135 77.71 0.656556
81 7 0 0 81.8 0.664314
82 7 0 2.045 83.845 0.632843
83 7 2.045 0 83.845 0.632843
84 7 2.045 2.045 81.8 0.664314
321 7 4.09 0 81.8 0.664314
322 7 4.09 2.045 83.845 0.632843
323 7 6.135 0 83.845 0.632843
324 7 6.135 2.045 81.8 0.664314
201 7 0 4.09 81.8 0.664314
202 7 0 6.135 83.845 0.632843
203 7 2.045 4.09 83.845 0.632843
204 7 2.045 6.135 81.8 0.664314
441 7 4.09 4.09 81.8 0.664314
442 7 4.09 6.135 83.845 0.632843
443 7 6.135 4.09 83.845 0.632843
444 7 6.135 6.135 81.8 0.664314
85 8 0 0 85.89 0.811363
86 8 0 2.045 87.935 0.774835
87 8 2.045 0 87.935 0.774835
88 8 2.045 2.045 85.89 0.811363
89 8 0 0 89.98 0.776977
92 8 2.045 2.045 89.98 0.776977
325 8 4.09 0 85.89 0.811363
326 8 4.09 2.045 87.935 0.774835
327 8 6.135 0 87.935 0.774835
328 8 6.135 2.045 85.89 0.811363
329 8 4.09 0 89.98 0.776977
332 8 6.135 2.045 89.98 0.776977
205 8 0 4.09 85.89 0.811363
206 8 0 6.135 87.935 0.774835
207 8 2.045 4.09 87.935 0.774835
208 8 2.045 6.135 85.89 0.811363
209 8 0 4.09 89.98 0.776977
212 8 2.045 6.135 89.98 0.776977
445 8 4.09 4.09 85.89 0.811363
446 8 4.09 6.135 87.935 0.774835
447 8 6.135 4.09 87.935 0.774835
448 8 6.135 6.135 85.89 0.811363
449 8 4.09 4.09 89.98 0.776977
452 8 6.135 6.135 89.98 0.776977
90 8 0 2.045 92.025 0.776977
91 8 2.045 0 92.025 0.776977
93 8 0 0 94.07 0.791966
96 8 2.045 2.045 94.07 0.791966
330 8 4.09 2.045 92.025 0.776977
331 8 6.135 0 92.025 0.776977
333 8 4.09 0 94.07 0.791966
336 8 6.135 2.045 94.07 0.791966
210 8 0 6.135 92.025 0.776977
211 8 2.045 4.09 92.025 0.776977
213 8 0 4.09 94.07 0.791966
216 8 2.045 6.135 94.07 0.791966
450 8 4.09 6.135 92.025 0.776977
451 8 6.135 4.09 92.025 0.776977
453 8 4.09 4.09 94.07 0.791966
456 8 6.135 6.135 94.07 0.791966
94 8 0 2.045 96.115 0.780641
95 8 2.045 0 96.115 0.780641
97 9 0 0 98.16 0.939744
100 9 2.045 2.045 98.16 0.939744
334 8 4.09 2.045 96.115 0.780641
335 8 6.135 0 96.115 0.780641
337 9 4.09 0 98.16 0.939744
340 9 6.135 2.045 98.16 0.939744
214 8 0 6.135 96.115 0.780641
215 8 2.045 4.09 96.115 0.780641
217 9 0 4.09 98.16 0.939744
220 9 2.045 6.135 98.16 0.939744
454 8 4.09 6.135 96.115 0.780641
455 8 6.135 4.09 96.115 0.780641
457 9 4.09 4.09 98.16 0.939744
460 9 6.135 6.135 98.16 0.939744
98 9 0 2.045 100.205 0.995042
99 9 2.045 0 100.205 0.995042
101 9 0 0 102.25 0.986893
102 9 0 2.045 104.295 0.986893
103 9 2.045 0 104.295 0.986893
104 9 2.045 2.045 102.25 0.986893
338 9 4.09 2.045 100.205 0.995042
339 9 6.135 0 100.205 0.995042
341 9 4.09 0 102.25 0.986893
342 9 4.09 2.045 104.295 0.986893
343 9 6.135 0 104.295 0.986893
344 9 6.135 2.045 102.25 0.986893
218 9 0 6.135 100.205 0.995042
219 9 2.045 4.09 100.205 0.995042
221 9 0 4.09 102.25 0.986893
222 9 0 6.135 104.295 0.986893
223 9 2.045 4.09 104.295 0.986893
224 9 2.045 6.135 102.25 0.986893
458 9 4.09 6.135 100.205 0.995042
459 9 6.135 4.09 100.205 0.995042
461 9 4.09 4.09 102.25 0.986893
462 9 4.09 6.135 104.295 0.986893
463 9 6.135 4.09 104.295 0.986893
464 9 6.135 6.135 102.25 0.986893
105 9 0 0 106.34 0.902542
106 9 0 2.045 108.385 0.607503
107 9 2.045 0 108.385 0.607503
108 9 2.045 2.045 106.34 0.902542
345 9 4.09 0 106.34 0.902542
346 9 4.09 2.045 108.385 0.607503
347 9 6.135 0 108.385 0.607503
348 9 6.135 2.045 106.34 0.902542
225 9 0 4.09 106.34 0.902542
226 9 0 6.135 108.385 0.607503
227 9 2.045 4.09 108.385 0.607503
228 9 2.045 6.135 106.34 0.902542
465 9 4.09 4.09 106.34 0.902542
466 9 4.09 6.135 108.385 0.607503
467 9 6.135 4.09 108.385 0.607503
468 9 6.135 6.135 106.34 0.902542
109 10 0 0 110.43 0.5053
110 10 0 2.045 112.475 0.739938
111 10 2.045 0 112.475 0.739938
112 10 2.045 2.045 110.43 0.5053
349 10 4.09 0 110.43 0.5053
350 10 4.09 2.045 112.475 0.739938
351 10 6.135 0 112.475 0.739938
352 10 6.135 2.045 110.43 0.5053
229 10 0 4.09 110.43 0.5053
230 10 0 6.135 112.475 0.739938
231 10 2.045 4.09 112.475 0.739938
232 10 2.045 6.135 110.43 0.5053
469 10 4.09 4.09 110.43 0.5053
470 10 4.09 6.135 112.475 0.739938
471 10 6.135 4.09 112.475 0.739938
472 10 6.135 6.135 110.43 0.5053
113 10 0 0 114.52 0.703045
114 10 0 2.045 116.565 0.703045
115 10 2.045 0 116.565 0.703045
116 10 2.045 2.045 114.52 0.703045
117 10 0 0 118.61 0.794108
120 10 2.045 2.045 118.61 0.794108
353 10 4.09 0 114.52 0.703045
354 10 4.09 2.045 116.565 0.703045
355 10 6.135 0 116.565 0.703045
356 10 6.135 2.045 114.52 0.703045
357 10 4.09 0 118.61 0.794108
360 10 6.135 2.045 118.61 0.794108
233 10 0 4.09 114.52 0.703045
234 10 0 6.135 116.565 0.703045
235 10 2.045 4.09 116.565 0.703045
236 10 2.045 6.135 114.52 0.703045
237 10 0 4.09 118.61 0.794108
240 10 2.045 6.135 118.61 0.794108
473 10 4.09 4.09 114.52 0.703045
474 10 4.09 6.135 116.565 0.703045
475 10 6.135 4.09 116.565 0.703045
476 10 6.135 6.135 114.52 0.703045
477 10 4.09 4.09 118.61 0.794108
480 10 6.135 6.135 118.61 0.794108
118 10 0 2.045 120.655 4.70213
119 10 2.045 0 120.655 4.70213
358 10 4.09 2.045 120.655 4.70213
359 10 6.135 0 120.655 4.70213
238 10 0 6.135 120.655 4.70213
239 10 2.045 4.09 120.655 4.70213
478 10 4.09 6.135 120.655 4.70213
479 10 6.135 4.09 120.655 4.70213
ITEM: TIMESTEP
50
ITEM: NUMBER OF ATOMS
480
ITEM: BOX BOUNDS pp pp pp
1.9015512610130178e-01 7.9898448738986971e+00
1.9015512610134461e-01 7.9898448738986554e+00
-4.9782020953387560e+00 1.3767820209533880e+02
ITEM: ATOMS id type xu yu zu f_grace_gamma
1 1 0.190155 0.190155 4.12315 2.36985
2 1 0.190155 2.14008 6.13834 0.593013
3 1 2.14008 0.190155 6.13834 0.593013
4 1 2.14008 2.14008 4.12315 2.36985
5 1 0.190155 0.190155 8.11649 0.519745
8 1 2.14008 2.14008 8.11649 0.519745
241 1 4.09 0.190155 4.12315 2.36985
242 1 4.09 2.14008 6.13834 0.593013
243 1 6.03992 0.190155 6.13834 0.593013
244 1 6.03992 2.14008 4.12315 2.36985
245 1 4.09 0.190155 8.11649 0.519745
248 1 6.03992 2.14008 8.11649 0.519745
121 1 0.190155 4.09 4.12315 2.36985
122 1 0.190155 6.03992 6.13834 0.593013
123 1 2.14008 4.09 6.13834 0.593013
124 1 2.14008 6.03992 4.12315 2.36985
125 1 0.190155 4.09 8.11649 0.519745
128 1 2.14008 6.03992 8.11649 0.519745
361 1 4.09 4.09 4.12315 2.36985
362 1 4.09 6.03992 6.13834 0.593013
363 1 6.03992 4.09 6.13834 0.593013
364 1 6.03992 6.03992 4.12315 2.36985
365 1 4.09 4.09 8.11649 0.519745
368 1 6.03992 6.03992 8.11649 0.519745
6 1 0.190155 2.14008 10.0455 0.504451
7 1 2.14008 0.190155 10.0455 0.504451
9 1 0.190155 0.190155 11.9494 0.503166
12 1 2.14008 2.14008 11.9494 0.503166
246 1 4.09 2.14008 10.0455 0.504451
247 1 6.03992 0.190155 10.0455 0.504451
249 1 4.09 0.190155 11.9494 0.503166
252 1 6.03992 2.14008 11.9494 0.503166
126 1 0.190155 6.03992 10.0455 0.504451
127 1 2.14008 4.09 10.0455 0.504451
129 1 0.190155 4.09 11.9494 0.503166
132 1 2.14008 6.03992 11.9494 0.503166
366 1 4.09 6.03992 10.0455 0.504451
367 1 6.03992 4.09 10.0455 0.504451
369 1 4.09 4.09 11.9494 0.503166
372 1 6.03992 6.03992 11.9494 0.503166
10 1 0.190155 2.14008 13.8032 0.506004
11 1 2.14008 0.190155 13.8032 0.506004
13 2 0.190155 0.190155 15.7528 0.533446
16 2 2.14008 2.14008 15.7528 0.533446
250 1 4.09 2.14008 13.8032 0.506004
251 1 6.03992 0.190155 13.8032 0.506004
253 2 4.09 0.190155 15.7528 0.533446
256 2 6.03992 2.14008 15.7528 0.533446
130 1 0.190155 6.03992 13.8032 0.506004
131 1 2.14008 4.09 13.8032 0.506004
133 2 0.190155 4.09 15.7528 0.533446
136 2 2.14008 6.03992 15.7528 0.533446
370 1 4.09 6.03992 13.8032 0.506004
371 1 6.03992 4.09 13.8032 0.506004
373 2 4.09 4.09 15.7528 0.533446
376 2 6.03992 6.03992 15.7528 0.533446
14 2 0.190155 2.14008 17.6578 0.600823
15 2 2.14008 0.190155 17.6578 0.600823
17 2 0.190155 0.190155 19.7227 0.601261
18 2 0.190155 2.14008 21.6211 0.565527
19 2 2.14008 0.190155 21.6211 0.565527
20 2 2.14008 2.14008 19.7227 0.601261
254 2 4.09 2.14008 17.6578 0.600823
255 2 6.03992 0.190155 17.6578 0.600823
257 2 4.09 0.190155 19.7227 0.601261
258 2 4.09 2.14008 21.6211 0.565527
259 2 6.03992 0.190155 21.6211 0.565527
260 2 6.03992 2.14008 19.7227 0.601261
134 2 0.190155 6.03992 17.6578 0.600823
135 2 2.14008 4.09 17.6578 0.600823
137 2 0.190155 4.09 19.7227 0.601261
138 2 0.190155 6.03992 21.6211 0.565527
139 2 2.14008 4.09 21.6211 0.565527
140 2 2.14008 6.03992 19.7227 0.601261
374 2 4.09 6.03992 17.6578 0.600823
375 2 6.03992 4.09 17.6578 0.600823
377 2 4.09 4.09 19.7227 0.601261
378 2 4.09 6.03992 21.6211 0.565527
379 2 6.03992 4.09 21.6211 0.565527
380 2 6.03992 6.03992 19.7227 0.601261
21 2 0.190155 0.190155 23.7297 0.503172
22 2 0.190155 2.14008 25.7817 0.471743
23 2 2.14008 0.190155 25.7817 0.471743
24 2 2.14008 2.14008 23.7297 0.503172
261 2 4.09 0.190155 23.7297 0.503172
262 2 4.09 2.14008 25.7817 0.471743
263 2 6.03992 0.190155 25.7817 0.471743
264 2 6.03992 2.14008 23.7297 0.503172
141 2 0.190155 4.09 23.7297 0.503172
142 2 0.190155 6.03992 25.7817 0.471743
143 2 2.14008 4.09 25.7817 0.471743
144 2 2.14008 6.03992 23.7297 0.503172
381 2 4.09 4.09 23.7297 0.503172
382 2 4.09 6.03992 25.7817 0.471743
383 2 6.03992 4.09 25.7817 0.471743
384 2 6.03992 6.03992 23.7297 0.503172
25 3 0.190155 0.190155 27.6219 0.687645
26 3 0.190155 2.14008 29.287 0.621988
27 3 2.14008 0.190155 29.287 0.621988
28 3 2.14008 2.14008 27.6219 0.687645
265 3 4.09 0.190155 27.6219 0.687645
266 3 4.09 2.14008 29.287 0.621988
267 3 6.03992 0.190155 29.287 0.621988
268 3 6.03992 2.14008 27.6219 0.687645
145 3 0.190155 4.09 27.6219 0.687645
146 3 0.190155 6.03992 29.287 0.621988
147 3 2.14008 4.09 29.287 0.621988
148 3 2.14008 6.03992 27.6219 0.687645
385 3 4.09 4.09 27.6219 0.687645
386 3 4.09 6.03992 29.287 0.621988
387 3 6.03992 4.09 29.287 0.621988
388 3 6.03992 6.03992 27.6219 0.687645
29 3 0.190155 0.190155 31.116 0.663154
30 3 0.190155 2.14008 33.0229 0.685282
31 3 2.14008 0.190155 33.0229 0.685282
32 3 2.14008 2.14008 31.116 0.663154
33 3 0.190155 0.190155 34.9276 0.644413
36 3 2.14008 2.14008 34.9276 0.644413
269 3 4.09 0.190155 31.116 0.663154
270 3 4.09 2.14008 33.0229 0.685282
271 3 6.03992 0.190155 33.0229 0.685282
272 3 6.03992 2.14008 31.116 0.663154
273 3 4.09 0.190155 34.9276 0.644413
276 3 6.03992 2.14008 34.9276 0.644413
149 3 0.190155 4.09 31.116 0.663154
150 3 0.190155 6.03992 33.0229 0.685282
151 3 2.14008 4.09 33.0229 0.685282
152 3 2.14008 6.03992 31.116 0.663154
153 3 0.190155 4.09 34.9276 0.644413
156 3 2.14008 6.03992 34.9276 0.644413
389 3 4.09 4.09 31.116 0.663154
390 3 4.09 6.03992 33.0229 0.685282
391 3 6.03992 4.09 33.0229 0.685282
392 3 6.03992 6.03992 31.116 0.663154
393 3 4.09 4.09 34.9276 0.644413
396 3 6.03992 6.03992 34.9276 0.644413
34 3 0.190155 2.14008 36.8264 0.481771
35 3 2.14008 0.190155 36.8264 0.481771
37 4 0.190155 0.190155 38.7542 0.409201
40 4 2.14008 2.14008 38.7542 0.409201
274 3 4.09 2.14008 36.8264 0.481771
275 3 6.03992 0.190155 36.8264 0.481771
277 4 4.09 0.190155 38.7542 0.409201
280 4 6.03992 2.14008 38.7542 0.409201
154 3 0.190155 6.03992 36.8264 0.481771
155 3 2.14008 4.09 36.8264 0.481771
157 4 0.190155 4.09 38.7542 0.409201
160 4 2.14008 6.03992 38.7542 0.409201
394 3 4.09 6.03992 36.8264 0.481771
395 3 6.03992 4.09 36.8264 0.481771
397 4 4.09 4.09 38.7542 0.409201
400 4 6.03992 6.03992 38.7542 0.409201
38 4 0.190155 2.14008 40.6351 0.641585
39 4 2.14008 0.190155 40.6351 0.641585
41 4 0.190155 0.190155 42.5896 0.702207
44 4 2.14008 2.14008 42.5896 0.702207
278 4 4.09 2.14008 40.6351 0.641585
279 4 6.03992 0.190155 40.6351 0.641585
281 4 4.09 0.190155 42.5896 0.702207
284 4 6.03992 2.14008 42.5896 0.702207
158 4 0.190155 6.03992 40.6351 0.641585
159 4 2.14008 4.09 40.6351 0.641585
161 4 0.190155 4.09 42.5896 0.702207
164 4 2.14008 6.03992 42.5896 0.702207
398 4 4.09 6.03992 40.6351 0.641585
399 4 6.03992 4.09 40.6351 0.641585
401 4 4.09 4.09 42.5896 0.702207
404 4 6.03992 6.03992 42.5896 0.702207
42 4 0.190155 2.14008 44.5188 0.711737
43 4 2.14008 0.190155 44.5188 0.711737
45 4 0.190155 0.190155 46.4724 0.666655
46 4 0.190155 2.14008 48.4104 0.44841
47 4 2.14008 0.190155 48.4104 0.44841
48 4 2.14008 2.14008 46.4724 0.666655
282 4 4.09 2.14008 44.5188 0.711737
283 4 6.03992 0.190155 44.5188 0.711737
285 4 4.09 0.190155 46.4724 0.666655
286 4 4.09 2.14008 48.4104 0.44841
287 4 6.03992 0.190155 48.4104 0.44841
288 4 6.03992 2.14008 46.4724 0.666655
162 4 0.190155 6.03992 44.5188 0.711737
163 4 2.14008 4.09 44.5188 0.711737
165 4 0.190155 4.09 46.4724 0.666655
166 4 0.190155 6.03992 48.4104 0.44841
167 4 2.14008 4.09 48.4104 0.44841
168 4 2.14008 6.03992 46.4724 0.666655
402 4 4.09 6.03992 44.5188 0.711737
403 4 6.03992 4.09 44.5188 0.711737
405 4 4.09 4.09 46.4724 0.666655
406 4 4.09 6.03992 48.4104 0.44841
407 4 6.03992 4.09 48.4104 0.44841
408 4 6.03992 6.03992 46.4724 0.666655
49 5 0.190155 0.190155 50.2198 0.432642
50 5 0.190155 2.14008 52.1683 0.480677
51 5 2.14008 0.190155 52.1683 0.480677
52 5 2.14008 2.14008 50.2198 0.432642
289 5 4.09 0.190155 50.2198 0.432642
290 5 4.09 2.14008 52.1683 0.480677
291 5 6.03992 0.190155 52.1683 0.480677
292 5 6.03992 2.14008 50.2198 0.432642
169 5 0.190155 4.09 50.2198 0.432642
170 5 0.190155 6.03992 52.1683 0.480677
171 5 2.14008 4.09 52.1683 0.480677
172 5 2.14008 6.03992 50.2198 0.432642
409 5 4.09 4.09 50.2198 0.432642
410 5 4.09 6.03992 52.1683 0.480677
411 5 6.03992 4.09 52.1683 0.480677
412 5 6.03992 6.03992 50.2198 0.432642
53 5 0.190155 0.190155 54.0306 0.497506
54 5 0.190155 2.14008 55.9411 0.491941
55 5 2.14008 0.190155 55.9411 0.491941
56 5 2.14008 2.14008 54.0306 0.497506
293 5 4.09 0.190155 54.0306 0.497506
294 5 4.09 2.14008 55.9411 0.491941
295 5 6.03992 0.190155 55.9411 0.491941
296 5 6.03992 2.14008 54.0306 0.497506
173 5 0.190155 4.09 54.0306 0.497506
174 5 0.190155 6.03992 55.9411 0.491941
175 5 2.14008 4.09 55.9411 0.491941
176 5 2.14008 6.03992 54.0306 0.497506
413 5 4.09 4.09 54.0306 0.497506
414 5 4.09 6.03992 55.9411 0.491941
415 5 6.03992 4.09 55.9411 0.491941
416 5 6.03992 6.03992 54.0306 0.497506
57 5 0.190155 0.190155 57.8283 0.492084
58 5 0.190155 2.14008 59.5617 0.512544
59 5 2.14008 0.190155 59.5617 0.512544
60 5 2.14008 2.14008 57.8283 0.492084
61 6 0.190155 0.190155 61.4351 0.571741
64 6 2.14008 2.14008 61.4351 0.571741
297 5 4.09 0.190155 57.8283 0.492084
298 5 4.09 2.14008 59.5617 0.512544
299 5 6.03992 0.190155 59.5617 0.512544
300 5 6.03992 2.14008 57.8283 0.492084
301 6 4.09 0.190155 61.4351 0.571741
304 6 6.03992 2.14008 61.4351 0.571741
177 5 0.190155 4.09 57.8283 0.492084
178 5 0.190155 6.03992 59.5617 0.512544
179 5 2.14008 4.09 59.5617 0.512544
180 5 2.14008 6.03992 57.8283 0.492084
181 6 0.190155 4.09 61.4351 0.571741
184 6 2.14008 6.03992 61.4351 0.571741
417 5 4.09 4.09 57.8283 0.492084
418 5 4.09 6.03992 59.5617 0.512544
419 5 6.03992 4.09 59.5617 0.512544
420 5 6.03992 6.03992 57.8283 0.492084
421 6 4.09 4.09 61.4351 0.571741
424 6 6.03992 6.03992 61.4351 0.571741
62 6 0.190155 2.14008 63.4773 0.583701
63 6 2.14008 0.190155 63.4773 0.583701
65 6 0.190155 0.190155 65.4478 0.57189
68 6 2.14008 2.14008 65.4478 0.57189
302 6 4.09 2.14008 63.4773 0.583701
303 6 6.03992 0.190155 63.4773 0.583701
305 6 4.09 0.190155 65.4478 0.57189
308 6 6.03992 2.14008 65.4478 0.57189
182 6 0.190155 6.03992 63.4773 0.583701
183 6 2.14008 4.09 63.4773 0.583701
185 6 0.190155 4.09 65.4478 0.57189
188 6 2.14008 6.03992 65.4478 0.57189
422 6 4.09 6.03992 63.4773 0.583701
423 6 6.03992 4.09 63.4773 0.583701
425 6 4.09 4.09 65.4478 0.57189
428 6 6.03992 6.03992 65.4478 0.57189
66 6 0.190155 2.14008 67.3815 0.536519
67 6 2.14008 0.190155 67.3815 0.536519
69 6 0.190155 0.190155 69.2965 0.521075
72 6 2.14008 2.14008 69.2965 0.521075
306 6 4.09 2.14008 67.3815 0.536519
307 6 6.03992 0.190155 67.3815 0.536519
309 6 4.09 0.190155 69.2965 0.521075
312 6 6.03992 2.14008 69.2965 0.521075
186 6 0.190155 6.03992 67.3815 0.536519
187 6 2.14008 4.09 67.3815 0.536519
189 6 0.190155 4.09 69.2965 0.521075
192 6 2.14008 6.03992 69.2965 0.521075
426 6 4.09 6.03992 67.3815 0.536519
427 6 6.03992 4.09 67.3815 0.536519
429 6 4.09 4.09 69.2965 0.521075
432 6 6.03992 6.03992 69.2965 0.521075
70 6 0.190155 2.14008 71.196 0.502457
71 6 2.14008 0.190155 71.196 0.502457
73 7 0.190155 0.190155 73.1098 0.711688
74 7 0.190155 2.14008 75.0316 0.697161
75 7 2.14008 0.190155 75.0316 0.697161
76 7 2.14008 2.14008 73.1098 0.711688
310 6 4.09 2.14008 71.196 0.502457
311 6 6.03992 0.190155 71.196 0.502457
313 7 4.09 0.190155 73.1098 0.711688
314 7 4.09 2.14008 75.0316 0.697161
315 7 6.03992 0.190155 75.0316 0.697161
316 7 6.03992 2.14008 73.1098 0.711688
190 6 0.190155 6.03992 71.196 0.502457
191 6 2.14008 4.09 71.196 0.502457
193 7 0.190155 4.09 73.1098 0.711688
194 7 0.190155 6.03992 75.0316 0.697161
195 7 2.14008 4.09 75.0316 0.697161
196 7 2.14008 6.03992 73.1098 0.711688
430 6 4.09 6.03992 71.196 0.502457
431 6 6.03992 4.09 71.196 0.502457
433 7 4.09 4.09 73.1098 0.711688
434 7 4.09 6.03992 75.0316 0.697161
435 7 6.03992 4.09 75.0316 0.697161
436 7 6.03992 6.03992 73.1098 0.711688
77 7 0.190155 0.190155 76.9803 0.701223
78 7 0.190155 2.14008 78.8989 0.705598
79 7 2.14008 0.190155 78.8989 0.705598
80 7 2.14008 2.14008 76.9803 0.701223
317 7 4.09 0.190155 76.9803 0.701223
318 7 4.09 2.14008 78.8989 0.705598
319 7 6.03992 0.190155 78.8989 0.705598
320 7 6.03992 2.14008 76.9803 0.701223
197 7 0.190155 4.09 76.9803 0.701223
198 7 0.190155 6.03992 78.8989 0.705598
199 7 2.14008 4.09 78.8989 0.705598
200 7 2.14008 6.03992 76.9803 0.701223
437 7 4.09 4.09 76.9803 0.701223
438 7 4.09 6.03992 78.8989 0.705598
439 7 6.03992 4.09 78.8989 0.705598
440 7 6.03992 6.03992 76.9803 0.701223
81 7 0.190155 0.190155 80.8704 0.674722
82 7 0.190155 2.14008 82.8242 0.554628
83 7 2.14008 0.190155 82.8242 0.554628
84 7 2.14008 2.14008 80.8704 0.674722
321 7 4.09 0.190155 80.8704 0.674722
322 7 4.09 2.14008 82.8242 0.554628
323 7 6.03992 0.190155 82.8242 0.554628
324 7 6.03992 2.14008 80.8704 0.674722
201 7 0.190155 4.09 80.8704 0.674722
202 7 0.190155 6.03992 82.8242 0.554628
203 7 2.14008 4.09 82.8242 0.554628
204 7 2.14008 6.03992 80.8704 0.674722
441 7 4.09 4.09 80.8704 0.674722
442 7 4.09 6.03992 82.8242 0.554628
443 7 6.03992 4.09 82.8242 0.554628
444 7 6.03992 6.03992 80.8704 0.674722
85 8 0.190155 0.190155 84.7498 0.550847
86 8 0.190155 2.14008 86.5795 0.585506
87 8 2.14008 0.190155 86.5795 0.585506
88 8 2.14008 2.14008 84.7498 0.550847
89 8 0.190155 0.190155 88.4623 0.577552
92 8 2.14008 2.14008 88.4623 0.577552
325 8 4.09 0.190155 84.7498 0.550847
326 8 4.09 2.14008 86.5795 0.585506
327 8 6.03992 0.190155 86.5795 0.585506
328 8 6.03992 2.14008 84.7498 0.550847
329 8 4.09 0.190155 88.4623 0.577552
332 8 6.03992 2.14008 88.4623 0.577552
205 8 0.190155 4.09 84.7498 0.550847
206 8 0.190155 6.03992 86.5795 0.585506
207 8 2.14008 4.09 86.5795 0.585506
208 8 2.14008 6.03992 84.7498 0.550847
209 8 0.190155 4.09 88.4623 0.577552
212 8 2.14008 6.03992 88.4623 0.577552
445 8 4.09 4.09 84.7498 0.550847
446 8 4.09 6.03992 86.5795 0.585506
447 8 6.03992 4.09 86.5795 0.585506
448 8 6.03992 6.03992 84.7498 0.550847
449 8 4.09 4.09 88.4623 0.577552
452 8 6.03992 6.03992 88.4623 0.577552
90 8 0.190155 2.14008 90.355 0.552095
91 8 2.14008 0.190155 90.355 0.552095
93 8 0.190155 0.190155 92.2533 0.5193
96 8 2.14008 2.14008 92.2533 0.5193
330 8 4.09 2.14008 90.355 0.552095
331 8 6.03992 0.190155 90.355 0.552095
333 8 4.09 0.190155 92.2533 0.5193
336 8 6.03992 2.14008 92.2533 0.5193
210 8 0.190155 6.03992 90.355 0.552095
211 8 2.14008 4.09 90.355 0.552095
213 8 0.190155 4.09 92.2533 0.5193
216 8 2.14008 6.03992 92.2533 0.5193
450 8 4.09 6.03992 90.355 0.552095
451 8 6.03992 4.09 90.355 0.552095
453 8 4.09 4.09 92.2533 0.5193
456 8 6.03992 6.03992 92.2533 0.5193
94 8 0.190155 2.14008 94.206 0.44502
95 8 2.14008 0.190155 94.206 0.44502
97 9 0.190155 0.190155 96.1213 0.483275
100 9 2.14008 2.14008 96.1213 0.483275
334 8 4.09 2.14008 94.206 0.44502
335 8 6.03992 0.190155 94.206 0.44502
337 9 4.09 0.190155 96.1213 0.483275
340 9 6.03992 2.14008 96.1213 0.483275
214 8 0.190155 6.03992 94.206 0.44502
215 8 2.14008 4.09 94.206 0.44502
217 9 0.190155 4.09 96.1213 0.483275
220 9 2.14008 6.03992 96.1213 0.483275
454 8 4.09 6.03992 94.206 0.44502
455 8 6.03992 4.09 94.206 0.44502
457 9 4.09 4.09 96.1213 0.483275
460 9 6.03992 6.03992 96.1213 0.483275