LAMMPS data file via write_data, version 21 Nov 2023, timestep = 500, units = metal

480 atoms
10 atom types

0.2535489068839474 7.926451093116042 xlo xhi
0.2445830779609861 7.935416922039025 ylo yhi
-6.088706473000329 138.78870647300033 zlo zhi

Masses

1 107.8682
2 196.966569
3 63.546
4 192.217
5 58.6934
6 106.42
7 195.084
8 102.9055
9 101.07
10 44.955908

Atoms # atomic

1 10 7.614186998448428 7.456355627125209 1.6534192526631006 -1 -1 0
4 7 1.59366927971293 1.829576337305849 1.8148728238100036 0 0 0
241 10 4.207938551959732 0.49353635786167066 1.6886584871454868 0 0 0
244 2 6.0614450470355585 2.355235487239634 2.0135268151986487 0 0 0
121 1 7.914710257810929 4.431710926014862 1.6841392877622567 -1 0 0
124 2 2.3362622265159785 6.192846010860507 1.6437418331328706 0 0 0
361 10 3.6155204485230437 3.7193903296358046 1.862973483085133 0 0 0
364 7 5.3663996738376785 5.864182486491124 1.847595816860796 0 0 0
2 1 7.690461029228759 2.2448688544907287 4.129190171295452 -1 0 0
3 1 1.774787445032043 0.28037993151614615 4.119957725316757 0 0 0
5 1 7.7903903387408775 7.827161422067549 6.425141904902237 -1 -1 0
8 2 2.028235253180611 2.2045921616265414 6.244318267242694 0 0 0
242 1 3.9329695738391663 2.005255633764167 4.152638084094628 0 0 0
243 1 5.910645264392695 7.712226043582538 4.133642611068582 0 -1 0
245 2 3.901723433401604 7.637243298236919 6.269801983477681 0 -1 0
248 1 5.904984077220384 2.0582169416687606 6.232984857066327 0 0 0
122 2 7.862833954545334 5.828506357455254 4.216656830191605 -1 0 0
123 6 2.0201099523404658 3.770550973263647 3.8129044239765033 0 0 0
125 2 7.883077867044225 4.040940545110903 6.327733215481743 -1 0 0
128 3 1.963798687138599 5.944187834755043 6.181196490011748 0 0 0
362 2 3.6522072829933623 6.068711122910134 4.015503654204359 0 0 0
363 6 5.754262106064955 4.204001662595308 3.937216647979062 0 0 0
365 1 3.9772801144485936 4.183963653681465 6.100716005812146 0 0 0
368 1 5.979826885597198 5.978219026654468 6.240479344275618 0 0 0
6 1 7.7357576307622065 2.2575081386036304 8.336176883493438 -1 0 0
7 6 1.9392444446799613 0.2604004013902951 8.392305453926616 0 0 0
9 6 7.845931257928575 0.32765528302065083 10.611476630514069 -1 0 0
12 10 2.020454961353857 2.0707901686974415 10.52031252337617 0 0 0
246 1 3.9918688938660956 1.9925604494237634 8.424074155344195 0 0 0
247 3 5.850733923498867 0.3662658434442197 8.423011773220564 0 0 0
249 3 4.14325912168966 0.2836945883497526 10.597139651051798 0 0 0
252 1 6.025021494865408 2.333733788000187 10.67387623995669 0 0 0
126 1 7.895460203173201 5.969726429271962 8.385224269759426 -1 0 0
127 1 2.2730808039866215 4.120656329750728 8.374204052370105 0 0 0
129 2 7.919696328085999 4.1758036427089795 10.698832593819649 -1 0 0
132 2 2.105505132251708 6.157036776544603 10.545715462332826 0 0 0
366 1 4.1651743971899915 6.11864523938919 8.596072139966031 0 0 0
367 1 5.803869159529219 3.965301720471026 8.373465483409245 0 0 0
369 1 4.126939115399907 4.152478500993838 10.616682496534324 0 0 0
372 1 5.948824147449162 6.123725361119721 10.46025577482726 0 0 0
10 1 0.3033427378415242 2.196793539220727 12.813505186245742 0 0 0
11 1 2.1213255161611366 7.921321631157856 12.76386504045809 0 -1 0
13 1 7.750341917862428 0.45469219582806764 14.960025570583603 -1 0 0
16 1 2.216476913664363 2.2755515183022834 14.935027136705273 0 0 0
250 2 3.9464722343463414 2.2231958645936047 12.672708115971623 0 0 0
251 1 5.966594592721256 0.4138721961864299 12.849089518433129 0 0 0
253 1 4.1363150806185605 0.299568380326973 15.043712459701283 0 0 0
256 2 5.870215019721508 2.428045131301227 14.799879130544447 0 0 0
130 2 7.761789873811463 6.178557821350195 12.630636961306806 -1 0 0
131 1 2.1245938661608657 4.307366360234633 12.689406666269182 0 0 0
133 1 0.34255127324491297 4.347183186964168 14.912286132322123 0 0 0
136 1 2.0889523792065408 6.141834134175607 14.886086309394312 0 0 0
370 1 4.264390724640371 6.192303231648765 12.558299406867157 0 0 0
371 1 6.076447397671689 4.216585344761522 12.81097742393252 0 0 0
373 1 4.026848718415916 4.298274125424506 14.996879267909584 0 0 0
376 3 5.976027514293399 6.194211845348063 14.772895693016078 0 0 0
14 3 0.32386944595040135 2.225995400216635 16.827778425640037 0 0 0
15 2 1.986347679556716 0.2883003557403889 17.058857751083618 0 0 0
17 2 7.921934291050606 0.8166682109058849 19.11962902971906 -1 0 0
20 10 2.2684121828705988 2.3797977114321816 19.363669222133584 0 0 0
254 6 3.8061964866155895 2.1975134528760427 17.271409384481515 0 0 0
255 6 5.970024959081325 0.5860883037798627 17.251921708339353 0 0 0
257 10 4.249872768887392 7.633935647544309 19.43889797014605 0 -1 0
260 2 5.549717645045941 2.300902090566135 19.40945420916389 0 0 0
134 6 7.486101350838435 6.145521944263329 16.905396806479555 -1 0 0
135 10 1.957308906769062 4.604450386163901 17.155245094143705 0 0 0
137 2 7.690180746599568 3.9707560054402227 18.82089020529388 -1 0 0
140 6 1.6191479159565942 6.262133192568163 19.46965886046734 0 0 0
374 2 4.618020997434908 6.03317871769395 17.01235732781628 0 0 0
375 3 5.956584100594929 4.043811972054786 16.954252504309615 0 0 0
377 2 3.8964563960665104 4.724644295938315 19.263112399023697 0 0 0
380 6 6.3446505843837215 6.211065583537922 19.461796012143047 0 0 0
18 6 7.833701803460814 2.5676599176151043 21.55132561613098 -1 0 0
19 2 2.08158560648765 0.2890021781632337 21.417392030088667 0 0 0
258 2 4.0844127846750595 1.9874631256092437 21.72353327610752 0 0 0
259 2 6.245801325401562 0.40762070964515484 21.399500384398152 0 0 0
138 8 7.84078666661147 5.821102690084663 21.74104970508709 -1 0 0
139 2 2.383368919956781 4.236147945032455 21.52977555437429 0 0 0
378 6 4.35765554130006 6.25248581401884 21.660615962561955 0 0 0
379 10 5.838379947745397 4.225863275490399 21.468593818858725 0 0 0
21 10 7.88885574859688 7.858135113953134 23.89390775256368 -1 -1 0
24 1 2.056853053424569 2.1855029254554834 23.609987783763867 0 0 0
261 1 4.174954175687984 0.29308534409589443 23.9582762055993 0 0 0
264 2 6.110143096677165 2.3311447079291994 23.736216975783407 0 0 0
141 10 0.4966107691838753 4.29328908068511 23.968292389817204 0 0 0
144 6 2.185335117598649 6.160109549051327 23.651269921457477 0 0 0
381 1 4.084892048225923 4.123597623117635 23.81963264648455 0 0 0
384 6 6.0143521871615935 5.991867570986043 23.942458351063376 0 0 0
22 2 0.3671677611136662 2.187404983352034 26.034864640958425 0 0 0
23 6 2.2432063816122447 7.883980480361618 26.00608871161156 0 -1 0
262 1 4.134263965547797 2.271078281431963 26.059959318797063 0 0 0
263 2 6.066356350438909 0.3170844978044225 26.149839138003045 0 0 0
142 7 0.47275552896820083 6.1343462598950165 26.012290751320528 0 0 0
143 6 2.285507054566501 4.081156634778882 25.931839579648695 0 0 0
382 6 4.214238686754138 6.019777718599309 25.992882559004933 0 0 0
383 1 6.084956243911414 4.044911143212834 25.949527642083446 0 0 0
25 5 0.31066610375273995 0.31445025362479834 27.992631381762884 0 0 0
26 5 0.2998748677795184 2.205625006900412 29.657417213616853 0 0 0
27 7 2.3031432365062376 0.27413019499303704 29.65614624689522 0 0 0
28 3 2.2413799670569055 2.1616750459932286 27.92767564198568 0 0 0
265 3 4.028804264786615 0.4424900474329634 27.701611077960692 0 0 0
266 3 4.035723977740683 2.155894338245473 29.706365747132196 0 0 0
267 8 5.990058861170642 0.46197894321413613 29.650075470331124 0 0 0
268 3 6.232068092384985 2.3505631438201826 28.064852031635517 0 0 0
145 3 0.6318201740732463 4.097314401218551 27.81044666206425 0 0 0
146 5 0.3963513111008138 5.905815853903727 29.65441235803084 0 0 0
147 3 2.1024415208867664 4.099844410146943 29.869587775667902 0 0 0
148 3 2.3550280387676703 6.061696002599643 27.954599383594342 0 0 0
385 2 4.079924532699879 4.026626602937523 28.1353196730825 0 0 0
386 5 4.171659544143194 5.932277931015696 29.762648317456893 0 0 0
387 5 6.056861269385729 4.049099050878608 29.7466312716043 0 0 0
388 10 6.232756802929302 6.050754765396276 28.03960260600101 0 0 0
29 10 0.255938451630918 7.923264141942278 31.35270600260698 0 -1 0
30 7 0.4319061691021199 2.228453718050073 33.43539075710211 0 0 0
31 2 2.2175559126449182 0.28506864947140287 33.41750539043411 0 0 0
32 3 2.333550738904618 2.1856167049983934 31.377876421357833 0 0 0
269 3 4.109936773922305 0.3338610746980557 31.54208666912833 0 0 0
270 5 3.978047991865888 2.1500937605237223 33.18995585327494 0 0 0
271 3 5.851416691139988 7.858115547002827 33.37889121814 0 -1 0
272 7 5.833195431902027 2.242217223736156 31.69726709475124 0 0 0
149 5 7.8903903264901825 3.9707361668071446 31.33970068355535 -1 0 0
150 5 7.879989539217913 5.862101855624546 33.457667234101685 -1 0 0
151 7 2.16672953230258 4.1994928315253475 33.39150286306637 0 0 0
152 7 2.089634434078663 6.000073444202014 31.514786158994383 0 0 0
389 3 4.100601631737634 4.085369420143959 31.50946604429418 0 0 0
390 3 4.055219757379725 5.8520071599771715 33.55564072105227 0 0 0
391 5 6.0482126006266554 4.064442765884187 33.44256592463848 0 0 0
392 2 6.036627040666891 5.963739151488145 31.537304831220176 0 0 0
33 3 0.3496252551678819 7.883741407727914 35.31573516918089 0 -1 0
36 5 2.4700922578219973 2.177405807820927 35.10935064879071 0 0 0
273 7 4.109752456332346 7.903114998464433 35.18749917931803 0 -1 0
276 10 5.881572481633926 2.2353426729195927 34.925559342240156 0 0 0
153 3 0.3327251025429896 4.144983232964751 35.158617497320286 0 0 0
156 3 2.1540158462721166 6.02432706331216 35.48272898101304 0 0 0
393 5 4.026959572385534 4.019446193567109 35.09478608280761 0 0 0
396 5 6.168174761011446 5.922901037933263 35.27988954104489 0 0 0
34 8 0.45689393697467384 2.027064173367805 37.01870981210896 0 0 0
35 5 2.169634620163781 0.2539366192453283 36.97801433106305 0 0 0
37 9 0.2630338489832251 7.880292061757947 38.89240566233338 0 -1 0
40 8 2.170775764299613 2.0724039075816707 38.895248310071636 0 0 0
274 5 4.169786811617531 2.038415563935227 36.80150064009879 0 0 0
275 5 6.133750479413672 7.899558294578648 36.983828758948235 0 -1 0
277 8 4.233051015875592 0.25623927598582347 38.76111396906947 0 0 0
280 9 6.078155041480448 1.9506518962128636 38.67847168275825 0 0 0
154 7 0.2705904348639726 5.934184532110761 36.998380627427984 0 0 0
155 4 2.291383965604399 3.847979652892573 36.871043009417406 0 0 0
157 8 7.896565381223306 3.996787108641154 38.7525605197288 -1 0 0
160 10 2.2674915726261835 5.8699270542262525 38.72985210447047 0 0 0
394 3 4.2599062041261035 5.890490026242528 36.94866160558974 0 0 0
395 7 6.001408963345055 3.9743338026838106 36.870163903274566 0 0 0
397 9 4.093650454207843 3.906289631479082 38.821992219755074 0 0 0
400 8 5.979208244715506 5.923262278049476 38.96473508528097 0 0 0
38 8 7.869614482291803 2.04897148250019 40.52296781518228 -1 0 0
39 4 2.3148072818067913 7.821098364508785 40.60227705171998 0 -1 0
41 4 0.34630202277707667 7.8089625262986555 42.658889491449905 0 -1 0
44 8 2.158943258306326 1.9615778522126914 42.546641964071135 0 0 0
278 4 4.1523025443036925 2.0822267116763733 40.73498861864887 0 0 0
279 8 5.982457328968106 7.85404992434378 40.64500311611076 0 -1 0
281 9 4.1067457316323885 7.809046858794035 42.63752013629416 0 -1 0
284 9 5.910646651236515 2.007327913087466 42.56785745133006 0 0 0
158 4 0.30669893013652016 5.844567690805652 40.814887604761715 0 0 0
159 9 2.3152934719964855 3.9220596580565714 40.7797864510305 0 0 0
161 9 7.920531100335472 3.964688194773337 42.54335052743334 -1 0 0
164 9 2.182197390938436 5.819690700555496 42.52999988497503 0 0 0
398 8 4.1388299925892165 5.941031878499869 40.82601313690697 0 0 0
399 9 5.962810001964083 4.0235457252543165 40.77188323767044 0 0 0
401 9 4.224439758065705 3.907204276761098 42.653373828981934 0 0 0
404 4 6.02990246290633 5.825831660860652 42.68384302122941 0 0 0
42 9 0.2569850284190858 2.06477758081107 44.48914815022551 0 0 0
43 4 2.2640086374527266 7.664302264083336 44.567791295487055 0 -1 0
45 5 0.29270042831003446 7.694594869514736 46.262690595004464 0 -1 0
408 4 6.087654533063937 5.935099270624162 46.2872734743313 0 0 0
405 4 4.144833674394122 3.8723218063739764 46.315196116113874 0 0 0
48 4 2.114291895269898 2.0274010351827565 46.282448279173245 0 0 0
282 9 4.190554265046137 1.9499595424195515 44.51764894188386 0 0 0
283 9 6.040401069845455 7.82288530662041 44.40055898167911 0 -1 0
285 9 4.20426129908752 7.68150993549027 46.282524181843705 0 -1 0
403 4 6.108092683829 4.002756305051141 44.47621521179901 0 0 0
402 9 4.11090069657466 5.886578476436885 44.42775542787366 0 0 0
288 9 6.130010609606982 1.851002484588751 46.30470736188088 0 0 0
162 4 0.41546542893702376 5.769357609692776 44.46434204191067 0 0 0
163 8 2.2394215500904835 3.840156519414573 44.433616380509335 0 0 0
165 5 0.3841379047926349 3.8895031195905294 46.2444092103146 0 0 0
168 5 2.241884601943199 5.754741145155972 46.404861715251656 0 0 0
406 8 4.248132525724493 5.79793536442914 48.13966718554685 0 0 0
287 8 6.122037972194887 7.652629325289485 48.2274364572085 0 -1 0
286 8 4.097376588746289 1.8686822709254662 48.171779611281764 0 0 0
46 8 7.83468692924926 1.8243351906573295 48.20913160051768 -1 0 0
47 7 2.2250322941613927 7.72693271331374 48.21458003874199 0 -1 0
166 8 0.30837879160114917 5.748855869479103 48.20067240389281 0 0 0
49 5 0.2877430583441126 7.771889710653072 49.8719983557907 0 -1 0
50 5 0.2904873374511615 1.7445268516333434 51.62275349415701 0 0 0
51 5 2.1998216853063854 7.789125856132458 51.71878068013768 0 -1 0
52 8 2.223589364612 1.9405815326160551 50.031156766790474 0 0 0
289 5 4.109784581516357 7.709565650211061 49.98982759826274 0 -1 0
290 2 4.142303058157132 1.9527273099429778 51.88530538814811 0 0 0
291 5 5.9829011557297775 7.782765157072202 51.754447217163786 0 -1 0
292 5 6.064517097126341 1.8867446142725623 49.931247330647224 0 0 0
169 7 7.913050001750676 3.732535317919103 50.1494347927363 -1 0 0
170 7 0.3049696563016978 5.977490079936745 51.776460163082206 0 0 0
171 5 2.393968176733928 3.8460355962155495 52.079391468184326 0 0 0
172 10 2.210526119805703 5.72043237219108 50.089488628976916 0 0 0
409 5 4.028278952376825 3.791715129735854 50.06498874712486 0 0 0
410 7 4.2718496984943695 5.924337034395519 51.80166947929267 0 0 0
411 5 5.9516426528868855 3.878077770176044 51.6466249511728 0 0 0
412 5 6.030028495481011 5.744172580180576 50.075129105015854 0 0 0
422 3 4.1735031468036805 5.682968794013533 62.65712122817581 0 0 0
188 1 2.3894798869099922 5.906082852762919 64.78076453349298 0 0 0
182 6 7.863132828487203 5.518992148693055 62.73135304080418 -1 0 0
428 3 6.00127286650466 5.695738923355528 64.65738005943406 0 0 0
185 10 0.3111399276205667 4.005152003190632 64.8442566877069 0 0 0
425 2 4.3573074217016 3.944578152829735 64.83037221759118 0 0 0
183 1 2.335142037693608 3.896148468700556 62.792977552477936 0 0 0
423 3 5.989413382033986 3.7258348030590813 62.491335224833435 0 0 0
53 8 7.922483356362113 7.782758179643304 53.512252064795845 -1 -1 0
54 7 0.31753223507179046 2.1296410873418408 55.39881341331961 0 0 0
55 5 2.021746624895608 7.7116990004717305 55.24466471640327 0 -1 0
56 5 2.113691655050774 1.924044672553806 53.45801296590133 0 0 0
293 7 4.09905382045169 7.70916032486933 53.67112391746155 0 -1 0
294 3 4.197895294391172 2.0330090923874007 55.06160169136417 0 0 0
295 10 6.144605906413023 7.928288250694133 55.47654843094941 0 -1 0
296 5 6.217451857503489 1.9125526683756624 53.65584258676115 0 0 0
173 10 0.32531522821358033 3.7512314063995755 53.127287568757474 0 0 0
174 3 0.3016896375420277 6.084642104237345 55.272400241794784 0 0 0
175 6 2.333105061337029 3.759160442486288 55.068939918544224 0 0 0
176 5 2.222866390042759 5.795690540899216 53.70699873144734 0 0 0
413 3 4.379034693332958 3.903728343661013 53.59892879021069 0 0 0
414 5 4.301838414906701 5.643852103707445 55.181223677902835 0 0 0
415 5 6.156049023397864 3.9715006835833497 55.24866062757584 0 0 0
416 5 5.977229020264531 5.8283217980875435 53.62451907268642 0 0 0
57 3 0.5141128922628893 7.6874246290398585 57.20795905622654 0 -1 0
60 3 2.285064800148952 1.8459582900363256 56.91288064329163 0 0 0
297 3 3.7892498090855176 7.773122476039125 56.80246766874925 0 -1 0
300 5 6.079398220550043 2.2256759577073444 56.99085201451308 0 0 0
177 5 0.3627138959687514 4.022702278994913 57.038364575439196 0 0 0
180 7 2.2550201730635764 5.780805663939665 56.934530409637546 0 0 0
417 6 4.181136295023877 3.827135757798204 57.04965145546916 0 0 0
420 2 6.2134325913098944 5.739119155236555 57.007905649771516 0 0 0
58 3 0.40819848316459884 1.9967657767206242 58.68818369487204 0 0 0
59 3 2.286246709483733 7.7809549046426945 58.821031352349564 0 -1 0
61 1 0.3476898245525525 7.563397605033451 60.61739519866536 0 -1 0
64 1 2.1289798065266687 1.9019657871522062 60.67226354145576 0 0 0
298 3 4.103908214529738 1.9355667529721 58.68309786080914 0 0 0
299 7 5.939348041111346 7.914393038271161 58.47609686422564 0 -1 0
301 6 4.1599338353414375 7.758392109562186 60.701846511639346 0 -1 0
304 6 6.042932263021427 1.945206868048744 60.66791535843991 0 0 0
178 3 7.904404486454695 5.68758706667988 58.94206191656319 -1 0 0
179 5 2.148672170286196 3.821364082661417 58.667760361406565 0 0 0
181 1 7.891108343289664 3.763437924328854 60.760136327832754 -1 0 0
184 2 2.287459587919643 5.693387745994299 60.60740821308721 0 0 0
418 10 4.339393921676315 5.761476055486334 58.75464629187269 0 0 0
419 5 6.092301639552478 3.6544280942632277 58.81871893047945 0 0 0
421 6 4.164281424045591 3.8939987490432286 60.51867700919355 0 0 0
424 3 6.047232024844204 5.708690947019063 60.650372836475825 0 0 0
62 1 7.92236107889023 2.003492153079284 62.8995171341265 -1 0 0
63 1 2.1504082619163487 7.597233429142523 62.684634430837946 0 -1 0
65 1 7.848051888393796 7.382524511203005 64.77751564860843 -1 -1 0
68 2 2.132011693257172 1.8710249672350459 64.78439779743407 0 0 0
302 2 4.34344724070376 1.8986096672843829 62.7569416968892 0 0 0
303 2 6.081362720202803 7.673352861889125 62.81263736734708 0 -1 0
305 6 4.33135709373547 7.5582722570346 64.9440210860522 0 -1 0
308 3 6.0690569933964635 1.916137633666832 64.92288136753552 0 0 0
167 8 2.2503781343386535 3.83739556784197 48.26838981777091 0 0 0
407 10 6.0238269799545865 3.8372360267495447 48.27157323354506 0 0 0
66 1 0.3528281186428527 1.9745405675266445 66.90597023963858 0 0 0
67 6 2.1053717522607593 7.754830213906981 66.87908864187622 0 -1 0
69 6 7.843136684484877 7.8436248608949395 68.79469657003993 -1 -1 0
72 6 2.2765250734434406 2.0613405410656167 68.86547403637597 0 0 0
306 2 4.090152678995988 2.093014387909978 66.83704927597405 0 0 0
307 3 6.080240998351968 7.873409338129996 66.8115240896413 0 -1 0
309 7 4.218257290084281 7.848827410384455 68.89393014279618 0 -1 0
312 10 5.991413321164467 2.0777656974625023 68.95046202808939 0 0 0
186 3 0.3495999996334337 5.971515111360318 67.12106809037036 0 0 0
187 6 2.112549152584767 4.076888314425355 66.8961349318919 0 0 0
189 3 0.29652751869209715 4.065447423364377 68.83761684789518 0 0 0
192 2 2.1702264268533664 5.883503385094857 68.99020815982864 0 0 0
426 10 4.351635184551736 5.7766831102384 66.86780158444283 0 0 0
427 6 6.340896206281293 4.111768792643762 66.8698737508264 0 0 0
429 6 4.130835481871852 4.074637666320811 68.97461486265873 0 0 0
432 6 5.981527650850536 5.96456174658856 68.79439906132917 0 0 0
70 7 7.708675677341068 2.0841621510742234 70.77990253766984 -1 0 0
71 10 2.3163856285390776 7.912383829893821 70.90271469278728 0 -1 0
73 6 7.89807885944203 0.25700078790264114 72.8301874917131 -1 0 0
74 6 7.7419688436951635 2.2105356279263653 74.87876891880796 -1 0 0
75 7 2.1658396650960423 0.3545891205497574 75.00121466233473 0 0 0
76 7 2.0469341291369085 2.268959542345749 72.8273830109655 0 0 0
310 6 4.211699185506686 2.177569154304197 70.98722553718964 0 0 0
311 3 5.914449166856121 7.820333888202631 70.98986007222233 0 -1 0
313 7 4.0896895490386385 0.3222026889723016 72.93822677123866 0 0 0
314 10 3.935496616742408 2.2020470062129442 74.85023002363586 0 0 0
315 7 5.947374459918162 0.3050127573263221 74.79265251368516 0 0 0
316 3 6.162967011280411 2.0727457780900354 72.82945510338676 0 0 0
190 2 7.841594839936938 6.069686029492949 70.84508419426083 -1 0 0
191 10 2.2060015003334277 3.954776937540603 70.95208666502904 0 0 0
193 7 0.25894172503125024 4.087925811524125 72.75373040861538 0 0 0
194 10 7.788814701831569 5.9906489176305335 74.86747272524546 -1 0 0
195 8 1.9413320485016474 4.237399449739206 75.1165708368597 0 0 0
196 2 2.292729845661627 5.938566317915882 73.05575570937768 0 0 0
430 6 4.211773143450275 6.020721902979378 70.7726694101993 0 0 0
431 3 6.087134353501563 4.103200305554536 71.0005665190402 0 0 0
433 7 4.254859863336511 4.138575234237278 72.86030254867312 0 0 0
434 3 4.128560033309202 5.732326332298914 75.00222588328938 0 0 0
435 3 5.995166922625508 4.23464232225119 74.90850543323262 0 0 0
436 6 6.005779372902252 5.9954300898730235 72.800413674474 0 0 0
77 7 0.33561291728221565 0.3107865920142698 76.95671323652735 0 0 0
78 5 0.30410380777796464 2.0663144526380988 79.19636435971822 0 0 0
79 3 2.28624598099863 0.575450665597502 78.92999191813729 0 0 0
80 7 2.272371169544259 2.0768051580648246 76.99758635098618 0 0 0
317 10 4.255982279245984 7.766241387582287 76.80190194651534 0 -1 0
318 10 4.190335083502346 2.2802802923870704 78.95753871840891 0 0 0
319 7 6.014225011297238 0.317517697858901 78.89199660224435 0 0 0
320 7 5.947628969474321 2.1872331052475857 76.85751648346321 0 0 0
197 10 0.3129745028136312 3.850929304406589 77.02634192105738 0 0 0
198 10 0.3447552947664798 6.13353615117377 79.13859468706227 0 0 0
199 7 2.050255844996873 4.1071464978261485 79.04460258607392 0 0 0
200 7 2.250216428138514 6.160636634007684 77.02998300473052 0 0 0
437 7 4.112581961982266 4.195733463534996 76.92860017430671 0 0 0
438 10 4.0385919712444345 5.93236527455532 79.20929304011909 0 0 0
439 8 6.146271531010713 3.983470125520635 79.11785915623645 0 0 0
440 7 6.17384439408508 5.90826128424081 76.94477415376247 0 0 0
81 6 0.2746400062125586 0.2987132249876504 81.08320862109443 0 0 0
82 7 7.8838602687675685 2.2895212026661516 83.12757664900788 -1 0 0
83 10 2.03851423119264 7.860767416550983 83.11895658778148 0 -1 0
84 7 2.1176032157370073 2.273465699219345 81.03023638628379 0 0 0
321 7 4.030334735847023 0.2634418470321527 80.89705345219917 0 0 0
322 7 4.174889462222599 2.287207969661561 83.17785082716814 0 0 0
323 10 5.930599975855744 0.3660087001247854 82.92361654486733 0 0 0
324 6 6.086745838305294 2.1894047340608775 81.0348501629132 0 0 0
201 5 0.35704046993785976 4.124682917007695 80.96994958346627 0 0 0
202 5 7.856639451031684 6.099953504732484 83.08969243360383 -1 0 0
203 10 1.9993694099052204 4.07143389915259 83.13048649978994 0 0 0
204 7 2.1583986795967234 5.994905313042937 81.15167087007937 0 0 0
441 5 4.17980127374493 4.165179310793814 80.98486854338715 0 0 0
442 3 3.897014943666903 5.859625907916612 83.08921763077325 0 0 0
443 10 6.1090197673497055 4.0926084851582365 82.98659194351882 0 0 0
444 7 6.010471949937649 6.012735379087362 81.11682615813018 0 0 0
85 8 7.908934268002932 0.2831195078497771 85.11303633732301 -1 0 0
86 8 0.27570730425041484 2.276732422061141 86.9770281829555 0 0 0
87 8 2.1199809015978817 0.36545589276519275 87.03452356414692 0 0 0
88 8 2.1160495475521235 2.3112678192724907 85.11693907529731 0 0 0
89 4 7.805533963560183 0.3070063611056743 88.94665463112752 -1 0 0
92 9 2.1863226925793153 2.3298382847439028 88.98191787682005 0 0 0
325 8 3.9966010926938416 0.36024045555914175 85.00839269374467 0 0 0
326 9 4.113047242655252 2.127811320500341 86.98378849838858 0 0 0
327 5 5.879722514408126 7.895357563438935 86.98427759976238 0 -1 0
328 8 5.996459732685835 2.19617401393488 85.15114229138268 0 0 0
329 4 4.155027769543282 0.3600518333571555 88.85054701168241 0 0 0
332 9 6.003431263953221 2.152857139488968 88.82357568616445 0 0 0
205 5 7.905093076065651 4.215164283840112 85.18566177863897 -1 0 0
206 4 7.847051138702268 6.079815449162902 86.98935352214895 -1 0 0
207 8 2.1082355945467772 4.119281162368797 87.02213046313648 0 0 0
208 8 2.11099383587382 6.078371900896432 85.19625847357024 0 0 0
209 9 7.8773812597802575 4.206196617295303 88.98059881093464 -1 0 0
212 10 2.1534897084183475 6.133250928030057 88.94482066712114 0 0 0
445 8 4.06623794069159 4.121981458290615 85.14796722170716 0 0 0
446 8 3.96467583895828 6.051905818246235 87.06008872210052 0 0 0
447 4 5.968365188920231 4.140810257201592 87.11115333576265 0 0 0
448 8 5.831057433048347 6.183294697045719 85.08893662196851 0 0 0
449 4 4.127737873996619 4.094247973718522 88.99788260685594 0 0 0
452 4 6.023604590752978 6.005417376053586 88.95575150908164 0 0 0
90 4 0.33536823140794497 2.2360458564221366 90.94013125311068 0 0 0
91 8 2.2274788193479784 0.2513288571616634 90.9048622471798 0 0 0
93 4 7.86855671157989 0.34581614570666674 92.80572945409118 -1 0 0
96 8 2.2594557212533686 2.225635816296979 92.80577445545144 0 0 0
330 9 3.9805203730632575 2.241361467856207 90.84251337211276 0 0 0
331 4 5.927850655609001 0.34855132007338896 90.80913874959573 0 0 0
333 9 4.091975402208705 0.27683048320808634 92.86089818130361 0 0 0
336 9 6.027825454536744 2.3078009486292284 92.65287678008266 0 0 0
210 9 7.81723148409851 6.08223781066782 90.89258413771555 -1 0 0
211 4 2.167904000264543 4.1630765742990015 90.89052612947532 0 0 0
213 4 7.906945839067994 4.230133745159366 92.8123068875334 -1 0 0
216 9 2.1830202309555995 6.062201365763329 92.77096040764815 0 0 0
450 4 4.115808725310054 6.073260348141472 90.95261421409828 0 0 0
451 9 6.082410681574002 4.22890656470327 90.88447270576155 0 0 0
453 9 4.1155454792752835 4.107930081251457 92.78166787788976 0 0 0
456 9 6.0813883946471545 6.11453108384821 92.87458160881248 0 0 0
94 4 7.908889073073647 2.292036617377554 94.63554351873397 -1 0 0
95 4 2.1527666747607643 0.34261006804108907 94.70658147978544 0 0 0
97 4 7.921561948009186 0.34179163621319864 96.53481069858117 -1 0 0
100 8 2.2160726547980563 2.2252377193908592 96.57231652994444 0 0 0
334 8 4.148714666354341 2.3138649045588164 94.60375347896226 0 0 0
335 4 5.926342458586616 0.3012714389559447 94.66231394069708 0 0 0
337 9 4.169005732651248 0.3667600100445721 96.53710808957163 0 0 0
340 9 6.003240679770663 2.3132092998082507 96.53475353913792 0 0 0
214 9 0.25487255855985336 6.0690940658862225 94.66072456692685 0 0 0
215 9 2.095190095898003 4.1818763219279855 94.63669570980021 0 0 0
217 4 7.907655615965243 4.244914938543657 96.50076981564145 -1 0 0
220 8 2.2391646369606533 6.096383166716219 96.53997767412247 0 0 0
454 4 4.082733453629521 6.053749066227516 94.66458264545712 0 0 0
455 9 5.935778607230093 4.148214568757693 94.67384974699179 0 0 0
457 4 4.145558768527448 4.237131243049134 96.54028170240065 0 0 0
460 9 5.970852950550428 6.092666536810336 96.55814999416343 0 0 0
98 8 7.862675378437563 2.2396963958669662 98.34381406579261 -1 0 0
99 4 2.1218059712769346 7.9111544923322 98.44016833108411 0 -1 0
338 9 4.087801689786891 2.2791710644468957 98.43910784054998 0 0 0
339 4 5.987487559468136 0.4250046111323419 98.38319877617636 0 0 0
218 9 0.27537041718159594 5.99625013499479 98.43450035460032 0 0 0
219 4 2.1381027601031306 4.169195805670611 98.34536610140344 0 0 0
458 9 4.062027244995635 6.128870610208287 98.38921568855366 0 0 0
459 9 5.961400374607965 4.195266576609523 98.36153752285797 0 0 0
101 8 7.8647182441958545 0.3863875990203267 100.27151736184564 -1 0 0
102 9 7.833298199663629 2.3004303801247876 102.17718025496934 -1 0 0
103 4 2.1986710961123124 0.33916990105218003 102.15897611714495 0 0 0
104 9 2.183721127694835 2.2488516844188107 100.31036148559191 0 0 0
341 9 4.121224853030406 0.35129832414092876 100.17129999582343 0 0 0
342 9 3.985197956645573 2.2784053977018495 102.19250207950029 0 0 0
343 9 5.9460867599961595 0.39798580533724515 102.06116008940566 0 0 0
344 4 5.917793616452794 2.3284972283437706 100.28231658993897 0 0 0
221 4 7.905838591612824 4.240034650875152 100.19011945517465 -1 0 0
222 8 7.919555014363427 6.060423458062303 102.14550163849115 -1 0 0
223 4 2.0453603859896816 4.122985585061507 102.1065884472142 0 0 0
224 9 2.1085832818060064 6.182195146482165 100.32230645351181 0 0 0
461 8 4.083489462968466 4.152642028917005 100.32046028805773 0 0 0
462 4 4.078184085014697 6.171391306301398 102.10648195372397 0 0 0
463 4 5.895989397709979 4.223187747209498 102.11788628503449 0 0 0
464 4 5.98166033269437 6.152109879257635 100.29533959212513 0 0 0
105 8 7.770496052072202 0.35471268831946523 103.98023807259082 -1 0 0
106 8 0.279754388289959 2.3072276198430863 105.81354524493415 0 0 0
107 4 2.141801692712021 0.3523294064313433 105.78816131219229 0 0 0
108 8 2.110755547676674 2.258691499270857 104.0816322573779 0 0 0
345 9 4.02702392899591 0.47093227604567955 103.97748341458704 0 0 0
346 4 4.011701197628696 2.26353064916347 105.97792258096453 0 0 0
347 9 5.900490479485905 0.37598003757814047 105.82077252854091 0 0 0
348 4 6.042190108983215 2.1790484941396118 104.02907391463205 0 0 0
225 9 7.891913803943085 4.131900395202086 103.96777920464996 -1 0 0
226 4 7.82730988726304 6.117717601854299 105.79700850944074 -1 0 0
227 4 2.035075476101222 4.141586906543235 105.89400098966446 0 0 0
228 4 2.083504271950439 6.072293714700557 104.03347811404285 0 0 0
465 9 3.9685089827798445 4.150375799592847 103.97540328019294 0 0 0
466 4 4.002673164989746 6.132109898271107 105.83690576201334 0 0 0
467 5 5.852965751959626 4.235065357731969 105.72719426820042 0 0 0
468 8 5.9017116992614636 6.0095846758296805 104.0720861492234 0 0 0
109 10 7.813430863792336 0.29004242848796896 107.67952722718215 -1 0 0
110 7 7.866325123078093 1.9678439233170604 109.90165586983396 -1 0 0
111 10 2.2177928979382044 0.4222447320479534 109.9769474051932 0 0 0
112 7 2.033478602784803 2.395113456826165 107.84756805255518 0 0 0
349 7 3.9725286516272087 0.3524522261262148 107.84276210993656 0 0 0
350 6 4.166657367484982 2.285159613060334 109.91048348806879 0 0 0
351 10 5.836227841469446 0.2624666999279912 110.18782125419733 0 0 0
352 8 5.968748969235234 2.2503531592238706 107.8201906055022 0 0 0
229 10 7.714513193769312 4.255696517245445 107.87795691563475 -1 0 0
230 7 7.799058834316321 6.306952485814088 109.77627509874092 -1 0 0