LAMMPS data file via write_data, version 21 Nov 2023, timestep = 365, units = metal

480 atoms
10 atom types

0.2140269271479322 7.965973072852074 xlo xhi
0.21402692692587233 7.9659730730741325 ylo yhi
-3.7789447803484593 136.47894478034817 zlo zhi

Masses

1 107.8682
2 196.966569
3 63.546
4 192.217
5 58.6934
6 106.42
7 195.084
8 102.9055
9 101.07
10 44.955908

Atoms # atomic

1 1 7.9659730728520595 7.965973073074118 4.124139718113836 -1 -1 0
2 1 7.9659730728520595 2.152013463462924 6.225119701941449 -1 0 0
3 1 2.152013463573957 7.965973073074118 6.22511970194144 0 -1 0
4 1 2.1520134635739554 2.1520134634629264 4.124139718113831 0 0 0
5 1 7.9659730728520595 7.965973073074118 8.333091764329856 -1 -1 0
8 1 2.152013463573954 2.1520134634629255 8.333091764329849 0 0 0
241 1 4.089999999999986 7.96597307307412 4.1241397181138275 0 -1 0
242 1 4.089999999999991 2.1520134634629278 6.22511970194144 0 0 0
243 1 6.027986536426023 7.965973073074118 6.225119701941433 0 -1 0
244 1 6.027986536426024 2.1520134634629255 4.124139718113835 0 0 0
245 1 4.089999999999993 7.965973073074118 8.333091764329849 0 -1 0
248 1 6.027986536426024 2.152013463462924 8.333091764329849 0 0 0
121 1 7.9659730728520595 4.089999999999987 4.124139718113831 -1 0 0
122 1 7.9659730728520595 6.027986536537054 6.225119701941437 -1 0 0
123 1 2.152013463573956 4.089999999999991 6.225119701941437 0 0 0
124 1 2.152013463573955 6.027986536537054 4.1241397181138275 0 0 0
125 1 7.9659730728520595 4.089999999999994 8.333091764329849 -1 0 0
128 1 2.152013463573957 6.027986536537056 8.333091764329849 0 0 0
361 1 4.0899999999999945 4.089999999999991 4.1241397181138275 0 0 0
362 1 4.0899999999999945 6.027986536537054 6.22511970194144 0 0 0
363 1 6.027986536426024 4.089999999999994 6.225119701941449 0 0 0
364 1 6.027986536426023 6.027986536537056 4.1241397181138275 0 0 0
365 1 4.089999999999991 4.089999999999987 8.333091764329856 0 0 0
368 1 6.027986536426024 6.027986536537056 8.333091764329852 0 0 0
6 1 7.9659730728520595 2.152013463462924 10.411325144778441 -1 0 0
7 1 2.152013463573957 7.965973073074118 10.411325144778441 0 -1 0
9 1 7.9659730728520595 7.965973073074118 12.481913709461114 -1 -1 0
12 1 2.152013463573957 2.1520134634629255 12.481913709461104 0 0 0
246 1 4.089999999999987 2.1520134634629224 10.411325144778434 0 0 0
247 1 6.027986536426022 7.965973073074118 10.411325144778441 0 -1 0
249 1 4.089999999999993 7.965973073074118 12.481913709461114 0 -1 0
252 1 6.027986536426024 2.1520134634629207 12.481913709461104 0 0 0
126 1 7.9659730728520595 6.027986536537056 10.411325144778441 -1 0 0
127 1 2.152013463573956 4.089999999999994 10.411325144778434 0 0 0
129 1 7.9659730728520595 4.089999999999991 12.481913709461104 -1 0 0
132 1 2.1520134635739576 6.027986536537054 12.481913709461104 0 0 0
366 1 4.089999999999987 6.027986536537056 10.411325144778434 0 0 0
367 1 6.027986536426023 4.089999999999991 10.411325144778441 0 0 0
369 1 4.0899999999999945 4.089999999999991 12.481913709461104 0 0 0
372 1 6.027986536426024 6.027986536537058 12.481913709461114 0 0 0
10 1 7.9659730728520595 2.1520134634629224 14.545394918402033 -1 0 0
11 1 2.1520134635739585 7.965973073074118 14.54539491840204 0 -1 0
13 2 7.9659730728520595 7.96597307307412 16.644176188916987 -1 -1 0
16 2 2.1520134635739554 2.152013463462924 16.644176188916987 0 0 0
250 1 4.089999999999993 2.1520134634629255 14.54539491840204 0 0 0
251 1 6.027986536426024 7.965973073074118 14.54539491840204 0 -1 0
253 2 4.089999999999987 7.965973073074118 16.644176188916997 0 -1 0
256 2 6.027986536426028 2.1520134634629255 16.644176188916987 0 0 0
130 1 7.9659730728520595 6.027986536537054 14.54539491840203 -1 0 0
131 1 2.1520134635739576 4.089999999999986 14.54539491840203 0 0 0
133 2 7.9659730728520595 4.089999999999991 16.644176188916987 -1 0 0
136 2 2.1520134635739576 6.027986536537054 16.644176188916987 0 0 0
370 1 4.089999999999991 6.027986536537054 14.54539491840204 0 0 0
371 1 6.027986536426025 4.089999999999987 14.54539491840203 0 0 0
373 2 4.089999999999986 4.089999999999989 16.644176188916987 0 0 0
376 2 6.027986536426025 6.027986536537054 16.644176188916987 0 0 0
14 2 7.9659730728520595 2.1520134634629255 18.806221003539445 -1 0 0
15 2 2.1520134635739594 7.965973073074122 18.806221003539445 0 -1 0
17 2 7.965973072852058 7.965973073074118 20.967809635162354 -1 -1 0
18 2 7.965973072852059 2.1520134634629264 23.137757175785406 -1 0 0
19 2 2.1520134635739576 7.965973073074118 23.137757175785406 0 -1 0
20 2 2.152013463573959 2.152013463462927 20.967809635162354 0 0 0
254 2 4.089999999999991 2.152013463462927 18.806221003539445 0 0 0
255 2 6.027986536426031 7.965973073074118 18.806221003539445 0 -1 0
257 2 4.0899999999999945 7.965973073074122 20.967809635162354 0 -1 0
258 2 4.089999999999991 2.152013463462924 23.137757175785413 0 0 0
259 2 6.027986536426025 7.965973073074118 23.137757175785413 0 -1 0
260 2 6.027986536426031 2.1520134634629287 20.967809635162354 0 0 0
134 2 7.96597307285206 6.027986536537054 18.806221003539445 -1 0 0
135 2 2.1520134635739576 4.089999999999989 18.806221003539445 0 0 0
137 2 7.9659730728520595 4.089999999999995 20.967809635162354 -1 0 0
138 2 7.965973072852059 6.027986536537054 23.137757175785413 -1 0 0
139 2 2.1520134635739576 4.089999999999994 23.137757175785406 0 0 0
140 2 2.1520134635739634 6.027986536537054 20.967809635162354 0 0 0
374 2 4.089999999999989 6.027986536537054 18.806221003539445 0 0 0
375 2 6.027986536426031 4.089999999999994 18.806221003539445 0 0 0
377 2 4.089999999999991 4.089999999999989 20.967809635162354 0 0 0
378 2 4.089999999999993 6.027986536537054 23.137757175785424 0 0 0
379 2 6.027986536426024 4.089999999999994 23.137757175785413 0 0 0
380 2 6.0279865364260266 6.027986536537054 20.967809635162347 0 0 0
21 2 7.965973072852061 7.965973073074118 25.32197326871637 -1 -1 0
22 2 7.9659730728520595 2.1520134634629264 27.536815163251923 -1 0 0
23 2 2.152013463573955 7.965973073074122 27.536815163251923 0 -1 0
24 2 2.1520134635739563 2.1520134634629264 25.321973268716373 0 0 0
261 2 4.089999999999991 7.965973073074124 25.321973268716377 0 -1 0
262 2 4.089999999999987 2.152013463462927 27.536815163251923 0 0 0
263 2 6.027986536426026 7.965973073074122 27.536815163251912 0 -1 0
264 2 6.027986536426029 2.152013463462927 25.32197326871637 0 0 0
141 2 7.9659730728520595 4.089999999999991 25.321973268716377 -1 0 0
142 2 7.96597307285206 6.027986536537056 27.536815163251912 -1 0 0
143 2 2.1520134635739554 4.089999999999987 27.536815163251923 0 0 0
144 2 2.1520134635739585 6.027986536537056 25.321973268716377 0 0 0
381 2 4.089999999999991 4.089999999999989 25.321973268716377 0 0 0
382 2 4.089999999999987 6.027986536537056 27.536815163251923 0 0 0
383 2 6.027986536426024 4.089999999999986 27.536815163251923 0 0 0
384 2 6.027986536426025 6.027986536537056 25.321973268716377 0 0 0
25 3 7.9659730728520595 7.965973073074118 29.39879269879173 -1 -1 0
26 3 7.9659730728520595 2.1520134634629255 30.979755745118208 -1 0 0
27 3 2.1520134635739545 7.965973073074117 30.979755745118187 0 -1 0
28 3 2.152013463573949 2.1520134634629233 29.398792698791745 0 0 0
265 3 4.0899999999999945 7.965973073074118 29.39879269879173 0 -1 0
266 3 4.089999999999991 2.1520134634629264 30.97975574511818 0 0 0
267 3 6.027986536426025 7.965973073074118 30.97975574511818 0 -1 0
268 3 6.027986536426036 2.152013463462924 29.39879269879173 0 0 0
145 3 7.9659730728520595 4.089999999999987 29.398792698791738 -1 0 0
146 3 7.9659730728520595 6.027986536537054 30.97975574511818 -1 0 0
147 3 2.1520134635739545 4.089999999999995 30.979755745118187 0 0 0
148 3 2.1520134635739487 6.027986536537058 29.398792698791716 0 0 0
385 3 4.089999999999989 4.089999999999994 29.39879269879173 0 0 0
386 3 4.089999999999985 6.027986536537056 30.97975574511818 0 0 0
387 3 6.0279865364260266 4.089999999999994 30.97975574511818 0 0 0
388 3 6.027986536426029 6.027986536537056 29.39879269879173 0 0 0
29 3 7.9659730728520595 7.965973073074118 32.572683291796125 -1 -1 0
30 3 7.9659730728520595 2.1520134634629255 34.195520610444504 -1 0 0
31 3 2.1520134635739514 7.965973073074118 34.195520610444504 0 -1 0
32 3 2.152013463573959 2.1520134634629264 32.572683291796125 0 0 0
33 3 7.9659730728520595 7.965973073074118 35.84204264018548 -1 -1 0
36 3 2.1520134635739576 2.1520134634629224 35.84204264018548 0 0 0
269 3 4.089999999999993 7.965973073074118 32.572683291796125 0 -1 0
270 3 4.089999999999986 2.152013463462927 34.195520610444504 0 0 0
271 3 6.027986536426026 7.965973073074118 34.195520610444504 0 -1 0
272 3 6.02798653642602 2.1520134634629233 32.572683291796125 0 0 0
273 3 4.089999999999991 7.965973073074132 35.84204264018548 0 -1 0
276 3 6.027986536426017 2.1520134634629255 35.84204264018548 0 0 0
149 3 7.9659730728520595 4.089999999999995 32.57268329179613 -1 0 0
150 3 7.9659730728520595 6.027986536537054 34.195520610444504 -1 0 0
151 3 2.152013463573956 4.089999999999987 34.19552061044454 0 0 0
152 3 2.1520134635739567 6.027986536537054 32.57268329179614 0 0 0
153 3 7.9659730728520595 4.089999999999994 35.84204264018548 -1 0 0
156 3 2.1520134635739496 6.027986536537056 35.84204264018551 0 0 0
389 3 4.089999999999993 4.089999999999995 32.572683291796125 0 0 0
390 3 4.089999999999987 6.027986536537056 34.19552061044454 0 0 0
391 3 6.027986536426026 4.089999999999991 34.195520610444504 0 0 0
392 3 6.027986536426021 6.0279865365370595 32.572683291796125 0 0 0
393 3 4.089999999999996 4.089999999999981 35.84204264018548 0 0 0
396 3 6.027986536426031 6.027986536537054 35.84204264018548 0 0 0
34 3 7.9659730728520595 2.1520134634629264 37.53273003930388 -1 0 0
35 3 2.1520134635739496 7.965973073074127 37.53273003930388 0 -1 0
37 4 7.9659730728520595 7.965973073074118 39.398441438715786 -1 -1 0
40 4 2.1520134635739545 2.1520134634629255 39.39844143871579 0 0 0
274 3 4.089999999999982 2.152013463462924 37.532730039303885 0 0 0
275 3 6.027986536426031 7.965973073074118 37.53273003930388 0 -1 0
277 4 4.0899999999999945 7.965973073074117 39.39844143871581 0 -1 0
280 4 6.027986536426025 2.152013463462924 39.398441438715786 0 0 0
154 3 7.9659730728520595 6.027986536537056 37.53273003930388 -1 0 0
155 3 2.1520134635739505 4.089999999999981 37.53273003930388 0 0 0
157 4 7.9659730728520595 4.089999999999991 39.398441438715786 -1 0 0
160 4 2.1520134635739594 6.027986536537054 39.39844143871581 0 0 0
394 3 4.0899999999999945 6.027986536537054 37.53273003930386 0 0 0
395 3 6.027986536426026 4.089999999999982 37.53273003930388 0 0 0
397 4 4.089999999999991 4.089999999999995 39.39844143871581 0 0 0
400 4 6.027986536426021 6.027986536537054 39.39844143871581 0 0 0
38 4 7.9659730728520595 2.1520134634629255 41.27608131384441 -1 0 0
39 4 2.152013463573954 7.96597307307412 41.2760813138444 0 -1 0
41 4 7.9659730728520595 7.965973073074118 43.22005494073711 -1 -1 0
44 4 2.1520134635739554 2.1520134634629233 43.22005494073711 0 0 0
278 4 4.089999999999993 2.152013463462924 41.2760813138444 0 0 0
279 4 6.027986536426031 7.96597307307412 41.276081313844415 0 -1 0
281 4 4.089999999999987 7.965973073074118 43.22005494073711 0 -1 0
284 4 6.027986536426024 2.152013463462924 43.22005494073711 0 0 0
158 4 7.9659730728520595 6.027986536537054 41.2760813138444 -1 0 0
159 4 2.1520134635739545 4.089999999999987 41.276081313844415 0 0 0
161 4 7.9659730728520595 4.089999999999994 43.22005494073711 -1 0 0
164 4 2.1520134635739545 6.027986536537056 43.22005494073711 0 0 0
398 4 4.089999999999991 6.027986536537056 41.276081313844415 0 0 0
399 4 6.027986536426026 4.089999999999987 41.2760813138444 0 0 0
401 4 4.089999999999989 4.089999999999987 43.22005494073711 0 0 0
404 4 6.027986536426025 6.027986536537056 43.22005494073711 0 0 0
42 4 7.9659730728520595 2.1520134634629264 45.14769311235662 -1 0 0
43 4 2.1520134635739563 7.965973073074118 45.147693112356635 0 -1 0
45 4 7.9659730728520595 7.965973073074118 47.08624704323246 -1 -1 0
408 4 6.027986536426024 6.027986536537054 47.08624704323246 0 0 0
405 4 4.089999999999991 4.089999999999991 47.08624704323246 0 0 0
48 4 2.152013463573954 2.1520134634629255 47.08624704323249 0 0 0
282 4 4.089999999999989 2.1520134634629255 45.14769311235662 0 0 0
283 4 6.027986536426024 7.965973073074118 45.14769311235662 0 -1 0
285 4 4.089999999999993 7.965973073074118 47.08624704323246 0 -1 0
403 4 6.027986536426025 4.089999999999991 45.147693112356606 0 0 0
402 4 4.089999999999993 6.027986536537056 45.147693112356606 0 0 0
288 4 6.027986536426024 2.152013463462924 47.08624704323246 0 0 0
162 4 7.9659730728520595 6.027986536537058 45.14769311235662 -1 0 0
163 4 2.1520134635739567 4.089999999999991 45.147693112356606 0 0 0
165 4 7.9659730728520595 4.089999999999989 47.08624704323246 -1 0 0
168 4 2.1520134635739554 6.027986536537054 47.08624704323246 0 0 0
49 5 7.96597307285206 7.965973073074118 50.78070127811803 -1 -1 0
50 5 7.9659730728520595 2.152013463462924 52.4638608890262 -1 0 0
51 5 2.152013463573955 7.965973073074118 52.4638608890262 0 -1 0
52 5 2.1520134635739523 2.1520134634629207 50.780701278117995 0 0 0
289 5 4.089999999999991 7.965973073074118 50.780701278118016 0 -1 0
290 5 4.089999999999996 2.1520134634629278 52.463860889026186 0 0 0
291 5 6.027986536426029 7.965973073074118 52.46386088902616 0 -1 0
292 5 6.027986536426029 2.152013463462927 50.780701278118016 0 0 0
169 5 7.9659730728520595 4.089999999999981 50.780701278118016 -1 0 0
170 5 7.9659730728520595 6.027986536537054 52.46386088902617 -1 0 0
171 5 2.1520134635739576 4.089999999999995 52.46386088902616 0 0 0
172 5 2.1520134635739567 6.027986536537056 50.780701278117995 0 0 0
409 5 4.089999999999996 4.089999999999986 50.780701278117995 0 0 0
410 5 4.089999999999996 6.027986536537053 52.463860889026186 0 0 0
411 5 6.027986536426025 4.089999999999987 52.4638608890262 0 0 0
412 5 6.027986536426024 6.027986536537054 50.780701278117995 0 0 0
53 5 7.9659730728520595 7.965973073074118 54.07402270801781 -1 -1 0
54 5 7.965973072852069 2.152013463462924 55.6890806984328 -1 0 0
55 5 2.1520134635739616 7.96597307307412 55.6890806984328 0 -1 0
56 5 2.1520134635739625 2.1520134634629278 54.07402270801779 0 0 0
293 5 4.090000000000005 7.965973073074118 54.0740227080178 0 -1 0
294 5 4.089999999999982 2.152013463462927 55.6890806984328 0 0 0
295 5 6.027986536426029 7.965973073074118 55.68908069843282 0 -1 0
296 5 6.027986536426025 2.1520134634629198 54.07402270801781 0 0 0
173 5 7.9659730728520595 4.089999999999991 54.07402270801781 -1 0 0
174 5 7.9659730728520595 6.027986536537054 55.68908069843282 -1 0 0
175 5 2.152013463573959 4.089999999999984 55.68908069843282 0 0 0
176 5 2.152013463573957 6.027986536537054 54.07402270801781 0 0 0
413 5 4.089999999999991 4.089999999999994 54.0740227080178 0 0 0
414 5 4.089999999999982 6.027986536537054 55.6890806984328 0 0 0
415 5 6.027986536426024 4.089999999999984 55.6890806984328 0 0 0
416 5 6.027986536426021 6.027986536537056 54.07402270801781 0 0 0
57 5 7.9659730728520595 7.965973073074118 57.29562271084449 -1 -1 0
58 5 7.96597307285207 2.1520134634629335 58.865070212379834 -1 0 0
59 5 2.15201346357397 7.965973073074122 58.865070212379834 0 -1 0
60 5 2.1520134635739505 2.152013463462924 57.29562271084447 0 0 0
61 6 7.9659730728520595 7.965973073074124 60.685350773130885 -1 -1 0
64 6 2.1520134635739603 2.1520134634629264 60.68535077313093 0 0 0
297 5 4.0899999999999945 7.965973073074118 57.295622710844455 0 -1 0
298 5 4.089999999999987 2.1520134634629233 58.86507021237983 0 0 0
299 5 6.027986536426018 7.965973073074117 58.865070212379834 0 -1 0
300 5 6.0279865364260345 2.152013463462927 57.29562271084447 0 0 0
301 6 4.0899999999999945 7.965973073074118 60.6853507731309 0 -1 0
304 6 6.027986536426023 2.152013463462927 60.685350773130885 0 0 0
177 5 7.9659730728520595 4.089999999999991 57.29562271084447 -1 0 0
178 5 7.965973072852058 6.027986536537053 58.86507021237986 -1 0 0
179 5 2.152013463573957 4.089999999999984 58.865070212379834 0 0 0
180 5 2.1520134635739523 6.027986536537054 57.29562271084448 0 0 0
181 6 7.9659730728520595 4.089999999999989 60.68535077313093 -1 0 0
184 6 2.1520134635739585 6.027986536537054 60.6853507731309 0 0 0
417 5 4.089999999999993 4.089999999999995 57.29562271084447 0 0 0
418 5 4.089999999999996 6.027986536537061 58.865070212379834 0 0 0
419 5 6.027986536426023 4.090000000000002 58.865070212379834 0 0 0
420 5 6.0279865364260266 6.027986536537054 57.29562271084447 0 0 0
421 6 4.0899999999999945 4.089999999999991 60.6853507731309 0 0 0
424 6 6.027986536426024 6.027986536537056 60.68535077313093 0 0 0
62 6 7.9659730728520595 2.152013463462924 62.74840233737835 -1 0 0
63 6 2.1520134635739594 7.965973073074118 62.74840233737835 0 -1 0
65 6 7.965973072852061 7.965973073074118 64.77339363428693 -1 -1 0
68 6 2.1520134635739545 2.1520134634629255 64.77339363428693 0 0 0
302 6 4.089999999999996 2.1520134634629255 62.74840233737838 0 0 0
303 6 6.027986536426024 7.96597307307412 62.74840233737835 0 -1 0
305 6 4.089999999999987 7.965973073074118 64.77339363428693 0 -1 0
308 6 6.027986536426031 2.1520134634629304 64.77339363428693 0 0 0
182 6 7.96597307285206 6.027986536537058 62.74840233737838 -1 0 0
183 6 2.152013463573959 4.089999999999994 62.74840233737838 0 0 0
185 6 7.9659730728520595 4.089999999999987 64.77339363428693 -1 0 0
188 6 2.1520134635739585 6.027986536537054 64.77339363428693 0 0 0
422 6 4.089999999999991 6.027986536537054 62.74840233737838 0 0 0
423 6 6.027986536426022 4.089999999999987 62.74840233737838 0 0 0
425 6 4.089999999999993 4.089999999999989 64.77339363428696 0 0 0
428 6 6.027986536426023 6.02798653653705 64.77339363428693 0 0 0
46 4 7.9659730728520595 2.1520134634629207 49.012527420901684 -1 0 0
47 4 2.1520134635739567 7.965973073074118 49.012527420901684 0 -1 0
407 4 6.027986536426029 4.089999999999984 49.012527420901684 0 0 0
406 4 4.089999999999987 6.027986536537058 49.012527420901684 0 0 0
286 4 4.089999999999993 2.1520134634629198 49.012527420901684 0 0 0
287 4 6.027986536426025 7.965973073074122 49.012527420901684 0 -1 0
166 4 7.9659730728520595 6.027986536537054 49.012527420901684 -1 0 0
167 4 2.1520134635739523 4.089999999999991 49.012527420901684 0 0 0
66 6 7.965973072852066 2.152013463462927 66.78091009429525 -1 0 0
67 6 2.1520134635739603 7.965973073074122 66.78091009429525 0 -1 0
69 6 7.9659730728520595 7.965973073074118 68.77264825983136 -1 -1 0
72 6 2.1520134635739616 2.1520134634629233 68.77264825983136 0 0 0
306 6 4.089999999999985 2.1520134634629264 66.78091009429525 0 0 0
307 6 6.027986536426024 7.96597307307412 66.7809100942952 0 -1 0
309 6 4.089999999999997 7.965973073074124 68.77264825983136 0 -1 0
312 6 6.02798653642602 2.1520134634629198 68.77264825983136 0 0 0
186 6 7.965973072852066 6.027986536537054 66.78091009429525 -1 0 0
187 6 2.1520134635739563 4.089999999999989 66.78091009429525 0 0 0
189 6 7.9659730728520595 4.089999999999995 68.77264825983136 -1 0 0
192 6 2.1520134635739514 6.0279865365370595 68.77264825983136 0 0 0
426 6 4.089999999999987 6.027986536537054 66.78091009429528 0 0 0
427 6 6.027986536426025 4.089999999999986 66.78091009429525 0 0 0
429 6 4.0899999999999945 4.089999999999984 68.77264825983136 0 0 0
432 6 6.027986536426032 6.027986536537061 68.77264825983136 0 0 0
70 6 7.965973072852059 2.1520134634629198 70.75402598972636 -1 0 0
71 6 2.15201346357395 7.965973073074118 70.75402598972637 0 -1 0
73 7 7.965973072852039 7.965973073074114 72.72649582556362 -1 -1 0
74 7 7.96597307285206 2.15201346346294 74.69998630659691 -1 0 0
75 7 2.1520134635739483 7.965973073074097 74.69998630659695 0 -1 0
76 7 2.1520134635739505 2.1520134634629553 72.72649582556362 0 0 0
310 6 4.089999999999999 2.1520134634629278 70.75402598972639 0 0 0
311 6 6.027986536426034 7.965973073074118 70.75402598972636 0 -1 0
313 7 4.090000000000024 7.965973073074117 72.72649582556362 0 -1 0
314 7 4.090000000000011 2.1520134634629375 74.69998630659691 0 0 0
315 7 6.027986536426018 7.965973073074118 74.69998630659686 0 -1 0
316 7 6.027986536426024 2.152013463462906 72.72649582556362 0 0 0
190 6 7.9659730728520595 6.027986536537065 70.75402598972637 -1 0 0
191 6 2.152013463573957 4.089999999999984 70.75402598972639 0 0 0
193 7 0.21402692714794874 4.089999999999986 72.72649582556362 0 0 0
194 7 0.2140269271479426 6.027986536537068 74.69998630659691 0 0 0
195 7 2.1520134635739434 4.089999999999991 74.69998630659684 0 0 0
196 7 2.152013463573954 6.027986536537035 72.72649582556362 0 0 0
430 6 4.089999999999999 6.027986536537056 70.75402598972636 0 0 0
431 6 6.027986536426025 4.089999999999989 70.75402598972637 0 0 0
433 7 4.089999999999973 4.089999999999986 72.72649582556363 0 0 0
434 7 4.089999999999993 6.027986536537068 74.69998630659691 0 0 0
435 7 6.0279865364260194 4.089999999999969 74.69998630659693 0 0 0
436 7 6.0279865364260194 6.027986536537086 72.7264958255636 0 0 0
77 7 0.21402692714801563 7.965973073074122 76.67789185344344 0 -1 0
78 7 0.21402692714794874 2.1520134634629593 78.62980981536803 0 0 0
79 7 2.1520134635739545 7.965973073074112 78.62980981536798 0 -1 0
80 7 2.1520134635739283 2.1520134634628656 76.6778918534435 0 0 0
317 7 4.089999999999925 7.965973073074087 76.67789185344351 0 -1 0
318 7 4.090000000000002 2.1520134634629358 78.62980981536815 0 0 0
319 7 6.027986536425997 7.965973073074091 78.62980981536818 0 -1 0
320 7 6.027986536426031 2.1520134634630175 76.67789185344348 0 0 0
197 7 7.965973072852 4.089999999999957 76.6778918534435 -1 0 0
198 7 7.965973072852069 6.027986536537065 78.62980981536813 -1 0 0
199 7 2.15201346357393 4.089999999999959 78.62980981536818 0 0 0
200 7 2.152013463573964 6.027986536537148 76.6778918534435 0 0 0
437 7 4.090000000000078 4.089999999999995 76.67789185344348 0 0 0
438 7 4.090000000000022 6.027986536537088 78.62980981536803 0 0 0
439 7 6.02798653642602 4.089999999999981 78.62980981536798 0 0 0
440 7 6.027986536425994 6.027986536536999 76.67789185344351 0 0 0
81 7 7.96597307285199 7.965973073074083 80.59560489894686 -1 -1 0
82 7 7.965973072852066 2.152013463462927 82.54496793077845 -1 0 0
83 7 2.1520134635739363 7.965973073074104 82.54496793077848 0 -1 0
84 7 2.1520134635739647 2.152013463463037 80.59560489894682 0 0 0
321 7 4.090000000000096 7.965973073074127 80.59560489894683 0 -1 0
322 7 4.090000000000005 2.1520134634629535 82.54496793077845 0 0 0
323 7 6.0279865364260266 7.965973073074116 82.54496793077834 0 -1 0
324 7 6.0279865364259875 2.152013463462861 80.59560489894687 0 0 0
201 7 0.21402692714802538 4.089999999999991 80.5956048989468 0 0 0
202 7 0.2140269271479358 6.0279865365370755 82.54496793077844 0 0 0
203 7 2.152013463573964 4.089999999999984 82.54496793077833 0 0 0
204 7 2.1520134635739203 6.027986536536985 80.59560489894683 0 0 0
441 7 4.08999999999992 4.089999999999945 80.59560489894687 0 0 0
442 7 4.0899999999999945 6.027986536537054 82.54496793077848 0 0 0
443 7 6.027986536426003 4.089999999999973 82.54496793077848 0 0 0
444 7 6.027986536426032 6.027986536537164 80.59560489894683 0 0 0
85 8 0.21402692714793936 7.965973073074117 84.43011689336484 0 -1 0
86 8 7.9659730728520595 2.1520134634629287 86.21356683977153 -1 0 0
87 8 2.1520134635739576 7.96597307307412 86.21356683977152 0 -1 0
88 8 2.1520134635739505 2.1520134634629184 84.4301168933649 0 0 0
89 8 7.96597307285206 7.965973073074124 88.01677922835043 -1 -1 0
92 8 2.1520134635739545 2.1520134634629255 88.01677922835043 0 0 0
325 8 4.089999999999982 7.965973073074117 84.4301168933649 0 -1 0
326 8 4.089999999999991 2.1520134634629224 86.21356683977153 0 0 0
327 8 6.027986536426023 7.96597307307412 86.21356683977153 0 -1 0
328 8 6.027986536426024 2.152013463462942 84.4301168933649 0 0 0
329 8 4.089999999999993 7.965973073074122 88.01677922835043 0 -1 0
332 8 6.027986536426028 2.1520134634629255 88.01677922835043 0 0 0
205 8 7.965973072852051 4.089999999999987 84.4301168933649 -1 0 0
206 8 7.9659730728520595 6.027986536537054 86.21356683977153 -1 0 0
207 8 2.1520134635739505 4.089999999999987 86.21356683977153 0 0 0
208 8 2.1520134635739514 6.027986536537072 84.43011689336484 0 0 0
209 8 7.9659730728520595 4.089999999999986 88.01677922835043 -1 0 0
212 8 2.152013463573959 6.027986536537058 88.01677922835043 0 0 0
445 8 4.090000000000007 4.089999999999991 84.43011689336491 0 0 0
446 8 4.089999999999993 6.027986536537063 86.21356683977154 0 0 0
447 8 6.027986536426031 4.089999999999991 86.21356683977153 0 0 0
448 8 6.027986536426023 6.0279865365370515 84.4301168933649 0 0 0
449 8 4.0899999999999945 4.089999999999989 88.01677922835043 0 0 0
452 8 6.027986536426026 6.027986536537056 88.01677922835043 0 0 0
90 8 7.965973072852062 2.1520134634629215 89.81135823493327 -1 0 0
91 8 2.152013463573954 7.965973073074118 89.81135823493325 0 -1 0
93 8 7.9659730728520675 7.965973073074114 91.59853357572293 -1 -1 0
96 8 2.152013463573962 2.1520134634629264 91.59853357572293 0 0 0
330 8 4.089999999999993 2.152013463462927 89.81135823493325 0 0 0
331 8 6.027986536426031 7.965973073074118 89.81135823493325 0 -1 0
333 8 4.089999999999987 7.965973073074118 91.59853357572293 0 -1 0
336 8 6.027986536426023 2.1520134634629278 91.59853357572293 0 0 0
210 8 7.965973072852066 6.0279865365370595 89.81135823493327 -1 0 0
211 8 2.15201346357396 4.089999999999994 89.81135823493327 0 0 0
213 8 7.965973072852062 4.089999999999998 91.59853357572293 -1 0 0
216 8 2.152013463573956 6.027986536537054 91.59853357572297 0 0 0
450 8 4.089999999999993 6.027986536537054 89.81135823493325 0 0 0
451 8 6.027986536426025 4.089999999999994 89.81135823493325 0 0 0
453 8 4.089999999999987 4.089999999999994 91.59853357572293 0 0 0
456 8 6.027986536426031 6.027986536537054 91.59853357572293 0 0 0
94 8 7.96597307285206 2.1520134634629264 93.41427040454454 -1 0 0
95 8 2.152013463573959 7.965973073074118 93.41427040454455 0 -1 0
97 9 7.965973072852058 7.96597307307412 95.2106072544134 -1 -1 0
100 9 2.1520134635739545 2.152013463462924 95.2106072544134 0 0 0
334 8 4.089999999999993 2.1520134634629233 93.41427040454454 0 0 0
335 8 6.027986536426026 7.96597307307412 93.41427040454454 0 -1 0
337 9 4.089999999999996 7.965973073074122 95.2106072544134 0 -1 0
340 9 6.027986536426028 2.1520134634629224 95.2106072544134 0 0 0
214 8 7.965973072852061 6.027986536537056 93.41427040454457 -1 0 0
215 8 2.152013463573957 4.089999999999991 93.41427040454455 0 0 0
217 9 7.965973072852065 4.089999999999986 95.2106072544134 -1 0 0
220 9 2.1520134635739567 6.027986536537054 95.21060725441343 0 0 0
454 8 4.089999999999993 6.027986536537054 93.41427040454457 0 0 0
455 8 6.027986536426031 4.089999999999987 93.41427040454457 0 0 0
457 9 4.089999999999993 4.089999999999987 95.2106072544134 0 0 0
460 9 6.0279865364260266 6.027986536537058 95.2106072544134 0 0 0
98 9 7.9659730728520675 2.1520134634629255 96.96765316231215 -1 0 0
99 9 2.1520134635739594 7.965973073074127 96.96765316231215 0 -1 0
101 9 7.965973072852061 7.965973073074127 98.77743542738287 -1 -1 0
102 9 7.965973072852057 2.152013463462927 100.55437829542456 -1 0 0
103 9 2.152013463573959 7.965973073074116 100.55437829542454 0 -1 0
104 9 2.1520134635739563 2.1520134634629233 98.77743542738287 0 0 0
338 9 4.089999999999989 2.152013463462927 96.96765316231215 0 0 0
339 9 6.0279865364260266 7.965973073074118 96.96765316231215 0 -1 0
341 9 4.0899999999999945 7.965973073074118 98.77743542738284 0 -1 0
342 9 4.090000000000002 2.1520134634629198 100.55437829542456 0 0 0
343 9 6.027986536426026 7.965973073074125 100.55437829542454 0 -1 0
344 9 6.027986536426028 2.152013463462924 98.77743542738287 0 0 0
218 9 7.9659730728520595 6.027986536537054 96.96765316231216 -1 0 0
219 9 2.1520134635739603 4.089999999999981 96.96765316231215 0 0 0
221 9 7.9659730728520595 4.089999999999984 98.77743542738287 -1 0 0
222 9 7.965973072852068 6.027986536537054 100.55437829542454 -1 0 0
223 9 2.152013463573954 4.089999999999998 100.55437829542454 0 0 0
224 9 2.152013463573964 6.027986536537054 98.77743542738284 0 0 0
458 9 4.089999999999996 6.027986536537054 96.96765316231216 0 0 0
459 9 6.027986536426028 4.089999999999994 96.96765316231215 0 0 0
461 9 4.089999999999996 4.089999999999994 98.77743542738287 0 0 0
462 9 4.089999999999985 6.0279865365370595 100.55437829542456 0 0 0
463 9 6.027986536426034 4.089999999999986 100.55437829542454 0 0 0
464 9 6.02798653642602 6.027986536537058 98.77743542738288 0 0 0
105 9 7.965973072852063 7.965973073074116 102.3716598952976 -1 -1 0
106 9 0.21402692714794452 2.1520134634629198 104.10692242911831 0 0 0
107 9 2.1520134635739505 7.965973073074118 104.10692242911831 0 -1 0
108 9 2.1520134635739585 2.1520134634629264 102.3716598952976 0 0 0
345 9 4.089999999999987 0.21402692692587255 102.37165989529761 0 0 0
346 9 4.089999999999968 2.1520134634629304 104.10692242911831 0 0 0
347 9 6.027986536426032 7.965973073074125 104.10692242911831 0 -1 0
348 9 6.027986536426025 2.1520134634629255 102.37165989529763 0 0 0
225 9 7.965973072852061 4.089999999999994 102.37165989529763 -1 0 0
226 9 7.965973072852048 6.027986536537056 104.10692242911833 -1 0 0
227 9 2.152013463573971 4.089999999999991 104.10692242911831 0 0 0
228 9 2.152013463573948 6.027986536537054 102.37165989529761 0 0 0
465 9 4.089999999999991 4.089999999999973 102.37165989529761 0 0 0
466 9 4.090000000000009 6.02798653653705 104.10692242911831 0 0 0
467 9 6.027986536426016 4.089999999999986 104.10692242911833 0 0 0
468 9 6.027986536426039 6.027986536537056 102.37165989529763 0 0 0
109 10 0.2140269271479535 7.965973073074063 106.03166107947703 0 -1 0
110 10 0.21402692714940696 2.152013463463149 108.5986291072204 0 0 0
111 10 2.152013463573739 7.965973073072633 108.5986291072203 0 -1 0
112 10 2.152013463573894 2.1520134634629566 106.03166107947708 0 0 0
349 10 4.089999999999959 0.2140269269259159 106.03166107947703 0 0 0
350 10 4.089999999998507 2.1520134634626973 108.5986291072203 0 0 0
351 10 6.027986536426245 0.2140269269273463 108.5986291072204 0 0 0
352 10 6.027986536426088 2.152013463462884 106.03166107947708 0 0 0
229 10 7.965973072852024 4.090000000000044 106.03166107947703 -1 0 0