23
Properties=species:S:1:pos:R:3:molID:I:1:forces:R:3 Nmols=2 Comp=EMC(1):VC(1) energy=-1208.9163818359375 pbc="F F F"
C        1.40669906      -0.94852668       1.34895813        0       2.15043736      -1.36212730       1.37929964
O        2.40962720      -1.28579569       1.94060218        0      -0.99334967      -0.03625292       0.74749804
O        0.12933208      -1.04362166       1.73212218        0       0.73031735       0.07531714      -1.07335663
O        1.47688103      -0.50123066       0.16977718        0      -1.60589528       1.74114764      -3.94698095
C       -0.04094892      -1.35957861       3.04710722        0      -2.23392582      -3.74470425       2.09248877
C        2.63086009      -0.44012067      -0.69729584        0       0.21629608      -0.30112046       1.20876753
C       -1.63370895      -1.50622070       3.27897310        0       1.49883747       3.06576538      -5.83058500
H        0.40394607      -2.40141869       3.38785219        0      -0.58507854       1.38939083      -1.08903074
H        0.45089409      -0.68009967       3.66465807        0       0.35092527       1.58046901       1.28807497
H        3.36547112       0.15588234      -0.10162982        0      -0.05994096      -0.47634402      -0.92953432
H        2.91504097      -1.48023367      -0.91267079        0       0.34590805       0.23121905       0.25619453
H       -1.94975197      -1.75659466       4.21205616        0      -0.57720757      -1.29284930       1.85184574
H       -2.05149293      -0.44585866       3.06940317        0       0.52982199      -1.27491641       0.63554728
H       -1.99269390      -2.01510978       2.26033020        0       0.43255708       0.20680636       2.71427560
H        2.40328908      -0.00330166      -1.68040287        0      -0.23008993       0.22411537       0.67869067
C       -1.72449291       1.32071137      -0.47724482        1      -2.78677750      -2.37029719       1.23979914
O       -0.49731091       1.17084932      -0.94350183        1       2.33031845       1.08154297       0.93545085
C       -0.59555292       1.32678330      -2.25614190        1       4.38962173      -0.92099285      -4.12157154
O       -1.80939388       1.20327735      -2.66971779        1      -2.94473505      -0.73197865       0.80614650
C       -2.54717183       0.93277031      -1.49749577        1      -1.99319506       2.88729429      -1.38108659
O        0.29996908       1.35905635      -3.09270382        1      -0.85808420       0.43236011       2.27245283
H       -3.61379600       1.21128833      -1.72711182        1       1.35967886      -0.94154751       0.84478188
H       -1.99838686       1.11892533       0.56570417        1       0.53355849       0.53770232      -0.57916713
23
Properties=species:S:1:pos:R:3:molID:I:1:forces:R:3 Nmols=2 Comp=EMC(1):VC(1) energy=-1208.3677978515625 pbc="F F F"
C       -0.69763237       2.77908134       1.23040593        0      -3.33610940       3.28548956      -0.51185650
O        0.41091162       2.90825939       0.90179396        0       3.09379411      -1.71830273      -0.23291957
O       -1.54747343       1.82928336       1.18552589        0      -1.00847232      -0.07469082       0.86011243
O       -1.47622144       3.99724841       1.42502689        0       1.33679700      -2.01493216      -0.11812407
C       -1.05164540       0.55792034       1.01647294        0       2.86855412      -1.21143627       0.17758203
C       -0.58076239       5.05312920       1.23254991        0      -0.46614182       0.65479207       1.65249634
C       -2.08044529      -0.48666269       1.21495795        0      -0.27161789      -1.35013163       1.58980548
H       -0.58454442       0.48634732       0.04012394        0      -0.10236526      -0.02811730      -0.85528606
H       -0.13467740       0.35334331       1.69473493        0      -1.21880555       0.45776963      -0.19936919
H       -0.06260440       5.23490810       2.17521095        0       0.18043730       0.18834199       0.19119221
H        0.14888860       4.83289528       0.50576496        0       0.52961516      -0.15104699      -0.87505788
H       -1.73312235      -1.46158373       0.79107195        0       0.19889545       0.47407806       1.20101035
H       -2.35824633      -0.45531067       2.34884787        0       0.31227940      -0.69122815      -2.08427763
H       -2.94100738      -0.36219668       0.61415994        0      -1.26259398       0.80797607      -0.27546296
H       -1.12611735       5.90846729       0.99187595        0      -0.85426635       1.37143803      -0.51984513
C       -0.08214340      -3.62099671      -1.75664902        1       3.67632341      -1.56122649       0.05912423
O        0.70271158      -2.58156061      -2.27889895        1      -4.27665043      -0.71743464       0.28417051
C        1.51702058      -2.24412274      -1.30315304        1       2.69785357      -2.76558208      -1.72809529
O        1.84426665      -3.32881665      -0.58488607        1      -3.34076548      -2.90535021      -0.10777020
C        0.80931163      -4.41899586      -1.06022000        1       0.34418905       3.08545780       1.98759961
O        2.26134372      -1.36615074      -1.48889709        1       1.47356677       3.36931419       1.02238214
H        0.68980759      -5.35269451      -0.45185906        1       0.42287081       1.34296179      -0.94748569
H       -0.94944340      -3.98191357      -2.21206117        1      -0.99738747       0.15185954      -0.56992573
22
Properties=species:S:1:pos:R:3:molID:I:1:forces:R:3 Nmols=2 Comp=DMC(1):EC(1) energy=-1152.6429443359375 pbc="F F F"
C        3.61284208      -2.07550406       0.22518750        0      -1.88107896      -1.23580956      -1.43703306
C        3.75244713      -3.59650588       0.06730349        0       0.69257915       0.17386603      -1.45018888
O        3.49376106      -3.82976699      -1.34206152        0       0.43519413       0.18366814       1.23157692
C        3.66125512      -2.66054893      -1.99677956        0      -1.73601782      -0.89388454      -1.82286727
O        3.62495208      -2.64322686      -3.21021342        0       0.58076406       0.68176579       2.28024721
O        3.58672094      -1.63819695      -1.13761151        0       1.03365827       0.56953347      -0.11468506
H        2.69311810      -1.68178594       0.65247649        0      -0.23916763      -0.29111984       0.14249869
H        4.39196014      -1.77501500       0.83347249        0       1.76401961       1.22290754       0.65417254
H        4.79914284      -3.87108588       0.18849850        0       0.33811659      -0.03267404       0.23974797
H        3.20638895      -4.23945999       0.70763350        0      -0.98806751      -0.37825254       0.27653071
C       -3.46759295       0.39978606       1.80026948        1       1.57403195       0.03150284       0.20849752
O       -2.97357607       1.54546702       1.06417453        1      -1.43796921       0.64808989       0.18741071
C       -3.68755794       2.70816302       1.22221446        1       0.42431104      -0.89088947       0.37989497
O       -4.68780279       2.74251199       1.89068353        1       0.54574251       0.63338077      -0.67609727
O       -3.02453804       3.67995095       0.56466550        1      -0.12094510      -1.55888700       0.10011655
C       -3.40832901       5.01135302       0.69437551        1      -0.48557231       1.38231540       0.03151233
H       -2.75606489      -0.34492496       1.41046655        1      -0.46187681      -0.10725731       0.28992152
H       -3.22423792       0.57276303       2.88537145        1      -0.57949418      -0.20305544      -0.79805225
H       -4.49957609       0.04107006       1.62627149        1       0.51692164       0.75080276      -0.05699238
H       -3.64559507       5.22525692       1.76454043        1      -0.23832160       0.04058199      -0.65137136
H       -2.52239585       5.64242887       0.43704748        1      -0.66886568      -0.52536118      -0.02865630
H       -4.26611900       5.24361420      -0.02387951        1       0.93203819      -0.20122269       1.01381600
10
Properties=species:S:1:pos:R:3:molID:I:1:forces:R:3 Nmols=1 Comp=EC(1) energy=-562.145263671875 pbc="F F F"
C        0.04702185       0.83415061      -1.35688162        0      -0.00372982       0.32879114      -1.64405751
O       -0.50411916       0.92041564      -0.09821067        0      -1.80029988       1.24258065       0.43937945
C       -0.22546014      -0.08585037       0.71164131        0      -0.06503969       0.69105244       2.81557655
O        0.56264788      -0.94790435       0.08703933        0       0.43849307      -1.18815231       0.54414916
C        0.66519684      -0.67460239      -1.26913261        0      -1.70010877       1.81836295      -1.28885174
H       -0.69738817       1.32375765      -2.22990465        0       1.36110449      -1.94817758       1.99133396
H        0.84714788       1.58321857      -1.37349868        0       0.34006318      -0.37658063      -0.18450707
O       -0.53938913      -0.08326737       1.89579630        0       0.69018567      -0.51020724      -2.95615768
H        0.02858885      -1.36701536      -1.84039462        0       0.18771401       0.15632737       0.10090584
H        1.65750480      -0.65968937      -1.67245662        0       0.55161703      -0.21399689       0.18223041
34
Properties=species:S:1:pos:R:3:molID:I:1:forces:R:3 Nmols=3 Comp=DEC(1):VC(2) energy=-1828.5240478515625 pbc="F F F"
C       -0.09173039      -1.03795123       1.13215828        0       0.30025041       2.14473581       0.17573602
O        0.66122359       0.21716379       1.06796718        0      -1.60995352      -2.70830059       0.02420689
C        2.00051570      -0.15963122       1.04819417        0      -5.63145542      -1.87474978       0.09980407
O        2.12524271      -1.43898916       1.02832723        0      -1.41441286      -2.44057798      -0.28069654
C        0.82325763      -1.99034119       1.03538823        0       1.44929433      -3.21587181       0.17636240
O        2.79736471       0.62670475       1.13556421        0       5.82151747       5.02249908       0.29239520
H        0.89998060      -3.19638634       1.03570819        0      -0.70944065       3.22395587      -0.02308686
H       -1.19878638      -0.96512020       1.35657227        0       1.78570867      -0.15232538      -0.45796704
C       -0.41216639       2.13632989      -4.04738474        1      -3.28250456       0.28653741       1.71354318
O       -1.54790235       1.62400174      -3.95587182        1       3.25101495       0.91832513      -0.42218578
O        0.27796960       2.39783573      -5.12207270        1       0.35504866      -0.47431004      -0.32853961
O        0.20427561       2.77221179      -3.01263165        1      -0.38630092       0.53277701      -0.63009655
C       -0.13921839       1.75725079      -6.37238789        1       0.06118757       2.34507346       0.51274610
C       -0.32927039       2.62372971      -1.66351080        1       0.74558437      -1.88317168      -0.51421547
C        1.19375861       1.73544383      -7.19138670        1      -1.99156618      -0.44576147       0.09011471
H       -0.50711936       0.80607575      -6.08773184        1      -0.05510090      -1.35051191      -0.23176473
H       -1.02609134       2.38092375      -6.65819073        1       0.89710397      -0.33065575      -0.84412628
C        0.74890864       3.15720272      -0.68642378        1       0.40312922       3.46522093      -1.51061070
H       -1.45247042       2.74032784      -1.61172080        1       1.16827142       1.05897224       0.28482378
H       -0.24573039       1.54906976      -1.64900982        1      -0.09178889      -0.99824321       1.17226100
H        0.41137761       3.41774178       0.31939122        1      -0.44573620      -0.20669770      -0.50675738
H        1.72883761       2.71294188      -0.58148378        1      -0.37126899      -1.23396933      -0.23143759
H        1.13165760       4.14930296      -1.22746277        1      -1.20483017      -1.50796568       1.15737271
H        0.91526759       1.30510473      -8.22597790        1       1.12935436       0.69707859       1.80278873
H        1.72747660       2.70354986      -7.21263790        1      -0.70769620      -0.34446764      -0.49366972
H        1.76877558       1.13842678      -6.47950077        1       0.52557588      -0.52719218      -1.02109075
C       -1.03568435      -1.24044025       5.12450600        2      -2.61810446      -3.70161319       0.30022800
O       -0.75859940      -1.73307025       3.81813025        2      -2.00332165       0.23782659       4.22578430
C       -1.41239440      -2.91287422       3.89505816        2       0.62408984      -1.79610920      -2.25707483
O       -2.24688435      -3.16512823       4.90641403        2       1.09594572       2.90733266       1.78991902
C       -1.91975343      -2.14320517       5.82747746        2       2.28215837       1.78248286      -3.87114620
O       -1.15433335      -3.77282715       3.12227416        2       0.06570360      -0.88268232      -1.16631198
H       -2.43766642      -2.04236126       6.73720312        2      -0.25938684      -0.04925559       0.48841512
H       -0.57101941      -0.39238423       5.46437836        2       0.82193112       1.50161636       0.48427755
32
Properties=species:S:1:pos:R:3:molID:I:1:forces:R:3 Nmols=4 Comp=VC(4) energy=-2136.395751953125 pbc="F F F"
C       -0.18384601       2.39934206       2.87055969        0      -0.04572189       1.23349190       1.08259773
C       -1.00316405       3.14677811       2.14002562        0      -0.99338794       0.70778465      -0.22061071
O       -1.17628205       4.41016912       2.71089673        0       1.60665047      -1.96983480      -0.85525656
C       -0.12086101       4.43738317       3.60548162        0      -1.50320148       2.97909451       1.47778153
O        0.24541499       5.47160482       4.09773779        0       0.06923598      -1.20401251      -0.52687037
O        0.23488699       3.22132993       3.93537164        0       0.85479271      -1.63028288      -0.98469257
H        0.13492399       1.39397001       2.76868176        0       0.31436461      -0.37305218       0.26503426
H       -1.47591197       2.87969899       1.22259974        0      -0.37255058       0.45636091      -0.09769748
C        0.02037599       0.48658204      -1.62798727        1       0.54906034      -0.01125838       0.49273527
C       -0.25892201       1.33652198      -0.61137629        1      -0.49000224      -0.26392996      -0.28537595
O       -0.10946101       2.66759610      -1.08563530        1      -0.37905949      -1.71443796       0.58220732
C        0.27459899       2.57405710      -2.36491919        1       0.87981766      -0.72798699      -0.31728482
O        0.59739196       3.44374299      -3.10663629        1      -0.44036052      -0.02786517       0.41635382
O        0.39864299       1.23445106      -2.70981741        1      -0.45878822      -0.09284034       0.34948897
H        0.15245000      -0.63944596      -1.63558424        1       0.19068521       2.99691081      -0.68979818
H       -0.70971900       1.02950001       0.36996269        1       0.75158620       0.79178822      -1.31944740
C       -1.53499103      -2.18794107      -0.83939826        2       3.22093534      -1.68754053      -0.72152448
C       -2.65085101      -1.52059495      -0.90405232        2       0.40056801       3.13690853       1.43417299
O       -3.64232898      -2.19272709      -1.38567626        2      -1.87260258      -1.89427578      -1.23053265
C       -3.10100198      -3.38501406      -1.74439335        2      -0.57521385      -2.09279656      -0.77438939
O       -3.65989709      -4.32537079      -2.21766233        2      -0.42893660       0.55672038       0.03261971
O       -1.79078305      -3.43165493      -1.46657932        2       0.79283077       1.78677630       1.14705896
H       -0.46613801      -1.84036899      -0.73343331        2      -2.07532239      -1.67505312       0.45209897
H       -2.85133791      -0.50869095      -0.68429327        2      -0.08967128       0.77977604       0.29326999
C        2.04542804      -1.78058195       0.30450469        3      -1.08025849       1.06809855      -0.94659865
C        2.20972991      -2.20262599      -0.92132527        3       1.10002875      -1.09407353      -2.70287013
O        3.13455200      -3.29267287      -0.90597731        3      -1.79957247       1.43160141      -1.37437057
C        3.29816103      -3.54355001       0.35827771        3       1.30780625      -0.59178281       1.29237044
O        3.92212296      -4.43347120       0.83328068        3       0.00133681      -0.29252315       0.09526849
O        2.71428394      -2.55500293       1.09104776        3       1.30082881      -1.64683747       3.37058735
H        1.47149301      -1.03928494       0.75463468        3      -0.70078707       1.03675413       0.42074913
H        1.93026602      -1.88170993      -1.89532030        3      -0.03508994       0.02831858      -0.15707476
23
Properties=species:S:1:pos:R:3:molID:I:1:forces:R:3 Nmols=2 Comp=EMC(1):VC(1) energy=-1207.17919921875 pbc="F F F"
C       -0.55368245       2.82042670       1.12392294        0      -4.23143482       1.76172817       1.21498752
O        0.61067361       2.90822387       1.08283591        0       1.85229409      -1.57626343      -0.47326893
O       -1.56757545       1.90141177       1.18038595        0       1.94841468      -0.63186657       0.03494023
O       -1.31567645       3.95195580       1.31354690        0      -0.48477125      -0.05316448       0.05198413
C       -1.15945637       0.53953975       1.10869789        0       2.54833055      -1.19901681      -1.44849968
C       -0.60942441       5.19708776       1.24397397        0      -2.00152445      -0.14725542       0.79563552
C       -2.15627742      -0.55227125       1.12845790        0      -0.55189836      -1.62430608       2.73960972
H       -0.63897443       0.42297876       0.11855894        0      -0.28088251       0.38626105       0.29073089
H       -0.30251741       0.28352877       1.83223498        0      -1.22593570       0.82477003      -0.26854765
H       -0.11624742       5.35216379       2.20685101        0      -0.10397643       0.42867899      -0.01977730
H        0.10057957       4.94698191       0.51334596        0       1.07049370       1.03049088      -1.28597379
H       -1.82345545      -1.57423818       1.06068397        0       2.09445095      -0.35480571       0.02110201
H       -2.64350533      -0.58475226       2.09431791        0      -0.08469802       0.77402377       1.06035340
H       -2.94465542      -0.71663326       0.51023495        0      -2.24434781       1.58663106      -2.84939909
H       -1.42349541       5.98950672       1.03843296        0       1.69548500      -1.20590663       0.13612300
C       -0.31447041      -3.58338714      -1.46412504        1       3.18657446      -2.09344411      -3.81997442
O        0.55831057      -2.43077517      -2.18514109        1      -5.75184870      -2.27757597       0.83666933
C        1.54243159      -2.25624514      -1.45400703        1       5.25661278      -1.26176226       0.84516513
O        1.86569357      -3.50974727      -0.79744804        1      -2.35578847      -1.02859974      -0.55379748
C        0.73536760      -4.48398829      -1.06666505        1      -0.01881230       7.59124851      -0.29035437
O        2.37544250      -1.38256919      -1.48509705        1      -1.51712751      -0.79184079       0.54312748
H        0.76844460      -5.31061125      -0.46970305        1      -0.03262001      -1.59297204       0.79647750
H       -1.12763941      -4.02895403      -2.15072918        1       1.23300934       1.45494711       1.64268708
21
Properties=species:S:1:pos:R:3:molID:I:1:forces:R:3 Nmols=2 Comp=PC(1):VC(1) energy=-1181.69384765625 pbc="F F F"
C       -2.77607775      -0.20562433      -1.53955948        0       2.26660538       1.36620462      -3.87143111
O       -2.36679482      -0.44564033      -0.26708949        0       0.42394602       0.36459085       1.57539344
C       -3.39124370      -0.18280132       0.55434549        0      -0.52118987      -4.18839264       3.43931961
O       -4.47453070       0.09359468      -0.11637549        0      -0.81685495       2.18326879      -1.53693867
C       -4.05466175       0.61176068      -1.47582543        0      -0.45052302      -0.34755862       3.31332660
C       -1.49644876       0.57169569      -2.21235037        0      -5.05403328      -0.62531233      -0.85756755
H       -2.93682575      -1.11523938      -2.09851551        0       0.00219595      -0.68390125      -0.17157331
O       -3.44998264      -0.63177931       1.70508349        0       0.60336089       1.99843907      -2.44046378
H       -3.87626767       1.68107963      -1.29247153        0       0.05417202      -0.08816892      -0.50708842
H       -4.94257879       0.44917867      -2.05512452        0       0.20837909      -0.23390305      -0.66656715
H       -1.58334780       1.45300567      -1.67489552        0       1.01233208       1.60899401       0.99311554
H       -0.69514275      -0.06060532      -2.13386655        0       1.92046332      -0.85461199       0.20837709
H       -1.74266374       0.85064769      -3.25860858        0       0.35114551      -0.49964821       0.52209687
C        3.14170218       0.07860968       1.90398347        1      -5.30426311      -1.16418493       2.79264712
O        4.31518841       0.20511667       1.47918546        1       4.62414265       0.71276486      -1.58438253
C        4.23197222       0.08495168       0.09893551        1       7.33940792      -0.35854346      -2.42534184
O        3.03761721      -0.08545133      -0.25864148        1      -3.50744581      -0.31250978      -1.09596336
C        2.26470423      -0.09372932       0.89008349        1      -1.01769209       0.33139688      -0.25721037
O        5.23632526       0.02389467      -0.65116549        1      -3.53673291       0.49863699       2.89088583
H        1.16768730      -0.07575033       0.74390954        1       1.13899362      -0.10215803       0.32669380
H        2.90786624      -0.14447433       2.95684457        1       0.26358980       0.39459747      -0.64732826
35
Properties=species:S:1:pos:R:3:molID:I:1:forces:R:3 Nmols=3 Comp=DMC(1):EMC(1):VC(1) energy=-1799.2281494140625 pbc="F F F"
C        0.77743095      -4.03600359       0.27467319        0       1.61508191      -2.89204764       0.58150482
O        1.28903091      -5.16320753       0.95929217        0       0.22942305       0.41659439      -0.64896512
C        0.75651294      -5.16368055       2.18931627        0       0.96560454      -1.58633697       2.66141105
O       -0.16066407      -4.14499569       2.23753524        0       0.25100493      -1.03912234       0.61844063
C       -0.13006607      -3.53275061       1.02234018        0      -3.15973568       3.29119349       2.56479645
O        1.10245395      -5.90156651       3.12484407        0      -1.43420136       2.54687524      -3.20419717
H       -0.73748505      -2.59803772       1.09414721        0       0.72337234      -1.13974679      -0.62286639
H        1.16478693      -3.86064363      -0.65364784        0       0.79962641       0.38156223      -1.92075193
C        2.39473701      -0.13567971      -2.00385976        1      -3.51982808       1.32861531       0.84244782
O        2.02117705       0.93080831      -1.53105283        1       0.81422412      -1.59839809      -0.66801542
O        1.56575596      -1.17551470      -2.29425788        1      -0.41560555       0.73540884       0.37890339
O        3.56410599      -0.51147169      -2.36361885        1       0.61105537      -1.43663061      -0.85884565
C        0.08413994      -1.07812166      -2.07079673        1       2.73939681       1.55051112      -1.02211809
C        4.63801384       0.32011929      -2.19520688        1       1.04502177       2.80509377       0.50969553
H       -0.02724706      -1.10631275      -0.99866283        1      -0.54192364      -0.00943685       0.13601214
H       -0.23066705      -0.09215672      -2.55662274        1      -0.04153068      -1.39570618       0.68478137
H       -0.13875505      -1.96449971      -2.61947680        1      -0.99408138      -0.26117182      -0.03680190
H        5.52925682      -0.25668570      -2.45086575        1      -0.25328332       0.42920196      -0.02412361
H        4.53675508       1.33490324      -2.72569370        1       0.20210350      -1.50838113      -0.28130811
H        4.66562796       0.72269827      -1.16748881        1       0.34291175      -0.64294773       0.28340316
C       -2.15529704       3.67527223       0.67875421        2      -1.53379345      -0.82249755      -0.03959250
O       -2.19263101       3.17264032       1.81260824        2       0.74982315       1.62155163      -3.75838709
O       -2.98643708       4.62139940       0.16492219        2      -0.24674463       0.60616994       2.19081545
O       -1.49599302       3.30005240      -0.51957279        2      -0.42824888      -1.15246344       2.59410429
C       -4.00357485       5.33675241       1.03247321        2       0.58045495       0.52009451      -1.32771707
C       -0.48296008       2.28641725      -0.33284181        2       0.14501870       1.59820580       0.39856645
C       -4.74070215       6.38486719       0.09098719        2      -1.20206833       0.87819707       1.98204851
H       -4.58521795       4.56906319       1.51632619        2      -0.89094555      -0.44149953      -0.65314901
H       -3.61696410       5.83598614       1.95198119        2       0.70295954       0.10447732      -1.11063433
H        0.13538894       2.76807332       0.40759417        2       1.04690266      -0.00925648       0.10261354
H       -0.68323606       1.33709824       0.08318919        2      -1.34292674      -0.83671367       0.50131178
H       -5.36767626       7.06059551       0.80738819        2       0.39857042      -1.66192961      -0.98235047
H       -4.12336302       7.20362139      -0.28329381        2       0.77924180      -0.81342798      -0.35634780
H       -5.39347601       5.98927641      -0.74339181        2       0.94989496      -0.03186178       1.24950242
H       -0.01203106       2.06862926      -1.25954878        2       0.31322378       0.46582311      -0.76418602
18
Properties=species:S:1:pos:R:3:molID:I:1:forces:R:3 Nmols=1 Comp=DEC(1) energy=-760.4169311523438 pbc="F F F"
C        0.21545677       0.27857527       0.78011549        0       3.05002308       1.80991805      -0.27745140
O        1.21367276       0.73387229       1.36984849        0      -3.67629957      -0.39606357      -0.80119503
O        0.36155477      -0.84742874       0.10499748        0       1.57254410      -1.67681956      -1.90378940
O       -0.96275026       0.95702928       0.50959450        0       2.75957561       2.30380678       4.33121347
C        1.44331980      -0.93667674      -0.97146153        0       0.40856123      -1.15204108      -0.10903040
C       -1.85403621       0.46545729      -0.32444653        0      -2.13731170      -2.19042158      -3.76715589
C        2.63966966      -1.96566975      -0.47162151        0      -2.71310568       1.99722183      -0.14410949
H        0.93263578      -1.43869877      -1.92214453        0       0.87973338       1.02156913       1.93024027
H        1.84146082       0.10294128      -1.22501552        0      -0.54227537      -1.23748016       0.50802016
C       -3.10192323       1.32403529      -0.93014354        0       3.17981434       0.69126469      -2.49277043
H       -1.13933623       0.15264128      -1.19133651        0      -2.10071516       0.25470021      -0.00161594
H       -2.34241629      -0.45918372       0.11588048        0       0.34410489       0.68386579      -0.38463396
H       -2.68730831       2.20029140      -1.67216051        0      -0.61460823      -1.99836338       1.84036624
H       -3.57766914       0.60869330      -1.68711853        0      -0.04580063       1.08768666       1.75240767
H       -3.60041618       1.88782930      -0.14118752        0      -0.34969693      -0.83441472      -0.20909524
H        3.46203876      -2.13866377      -1.12403250        0      -0.24986386      -0.42233735      -1.35446954
H        3.18801069      -1.56574667       0.34892547        0      -0.31916463       0.63429350       1.12916958
H        2.03143668      -2.80301762      -0.16429052        0       0.55448502      -0.57638419      -0.04610065
44
Properties=species:S:1:pos:R:3:molID:I:1:forces:R:3 Nmols=3 Comp=DEC(2):VC(1) energy=-2057.831298828125 pbc="F F F"
C        0.30511126       0.00994164      -3.06306362        0      -0.29114133       1.74704027      -1.15453577
O        0.63089526       0.82307667      -2.22752953        0      -0.28171402      -1.19977140      -0.90171444
O       -0.00509874      -1.26174140      -2.95426345        0       0.22564340      -0.23359746       2.05404639
O        0.08915926       0.25015363      -4.38722277        0       0.01559860       1.79763007      -0.66435111
C        0.16192526      -1.78970039      -1.59430158        0       1.06820202       0.61986160      -0.15021694
C        0.30054528       1.59053469      -5.00813961        0       0.54765767       1.19384360      -0.30627078
C       -0.06891674      -3.25976038      -1.62754750        0      -1.28712833      -1.08099759       0.38802716
H        1.23337328      -1.58371139      -1.28653550        0      -0.87675607       0.00331089      -0.25444537
H       -0.52705675      -1.30971134      -0.86590254        0       0.21054012       0.10530579      -0.64855510
C       -0.71971077       2.73079062      -4.76370478        0      -0.11487222      -1.01874459       1.37472713