1
Lattice="20.0 0.0 0.0 0.0 20.0 0.0 0.0 0.0 20.0" Properties=species:S:1:pos:R:3:forces:R:3 config_type=IsolatedAtom energy=-10.7072114944458 pbc="F F F"
H        0.00000000       0.00000000       0.00000000      -0.00000000      -0.00000000      -0.00000000
1
Lattice="20.0 0.0 0.0 0.0 20.0 0.0 0.0 0.0 20.0" Properties=species:S:1:pos:R:3:forces:R:3 config_type=IsolatedAtom energy=-48.84744644165039 pbc="F F F"
C        0.00000000       0.00000000       0.00000000      -0.00000000      -0.00000000      -0.00000000
1
Lattice="20.0 0.0 0.0 0.0 20.0 0.0 0.0 0.0 20.0" Properties=species:S:1:pos:R:3:forces:R:3 config_type=IsolatedAtom energy=-102.57117462158203 pbc="F F F"
O        0.00000000       0.00000000       0.00000000      -0.00000000      -0.00000000      -0.00000000
24
Properties=species:S:1:pos:R:3:molID:I:1:forces:R:3 Nmols=3 Comp=VC(3) energy=-1601.707275390625 pbc="F F F"
C        0.45285612       3.01426506      -2.32330513        0       3.67499828      -1.19258177      -0.29710227
C       -0.65326887       3.32036090      -1.70732403        0      -1.72219789       0.67781031      -0.07787180
O       -0.82637185       2.63587189      -0.55307001        0       1.24619555      -1.00593257      -0.20266223
C        0.26635113       1.80842292      -0.42423803        0       1.24328232       0.90963203      -0.79632372
O        0.50404215       1.07012391       0.47730500        0      -1.04377449       1.58497357      -2.08103371
O        1.20395112       2.09938192      -1.54059100        0      -3.81722212       0.55883670       1.10917282
H        0.99488211       3.42258286      -3.19497991        0      -0.58856094      -0.39355141       0.68420082
H       -1.42996383       3.95062685      -2.12583590        0      -0.00476256      -0.17279774       0.50732768
C        1.26803315       0.08491497       2.52308202        1       0.35453784      -1.16842270       2.45016289
C        0.71784115      -0.92897701       3.20788789        1      -5.17672348      -0.04479516       2.33053017
O        0.64552510      -2.02956414       2.40690088        1       1.05159950      -0.58840823       0.28434199
C        1.62233818      -1.82807600       1.46278298        1      -0.39935803      -2.14940166      -1.22475088
O        2.07954812      -2.65240097       0.69964898        1      -0.93896168       1.75966609       1.70396781
O        1.90033615      -0.53814703       1.52785194        1       3.09824347       0.77740335      -2.12752295
H        1.60973608       0.97362196       3.01618791        1       0.02222985       0.25929838      -0.54097527
H       -0.23638988      -0.89091206       3.98334789        1       2.88526082       0.04667136      -1.79454494
C       -2.61711597      -1.50253499       0.01472599        2       0.28231940       2.24861622      -1.34990442
C       -1.65134692      -2.33284712      -0.23200200        2       2.48391008      -1.27106595      -0.71650040
O       -0.75461686      -1.64041007      -1.12287402        2       0.30400157      -2.34650135       1.06844544
C       -1.23930693      -0.42871904      -1.39447701        2       0.38030568      -0.21359804      -1.27609730
O       -0.76134789       0.30777997      -2.22421694        2      -0.90447807      -0.57987678       1.70409060
O       -2.37302589      -0.32890302      -0.69123900        2      -1.23639691       1.04966676       0.36376983
H       -3.27383399      -1.43262005       0.79540098        2      -1.61553371       0.15848175       1.39494848
H       -1.51131582      -3.31143308       0.29795000        2       0.42108616       1.09587693      -1.11566877
22
Properties=species:S:1:pos:R:3:molID:I:1:forces:R:3 Nmols=2 Comp=DMC(1):EC(1) energy=-1151.8363037109375 pbc="F F F"
C        2.69088602       2.54591513      -2.12696218        0      -1.40181577       4.49406862       1.51341331
O        2.34068704       3.64524508      -1.67616713        0       0.58392811      -2.16968179      -0.74607801
O        1.94911408       1.49887204      -2.25967312        0       0.16303992      -1.36229956      -0.32819504
O        3.84929514       2.26471615      -2.58353305        0       2.30082631      -0.99380898      -0.52307844
C        0.58085805       1.60748911      -2.26327205        0      -1.64336109      -0.29116246      -1.09244037
C        4.93368006       3.14626217      -2.62285423        0       2.47664022      -0.81664580      -1.07909083
H        0.20010208       1.35155511      -1.32161117        0      -0.49144417      -0.41022500       1.71789932
H        0.13602108       2.57295012      -2.51098919        0       0.47145382       0.16327798      -0.32401690
H        0.19209708       0.83466810      -2.94893003        0       0.25132686       0.41377196      -0.00313675
H        5.82548094       2.54683304      -3.02168822        0      -1.08066070       0.03172654       0.66959596
H        4.87149000       3.85138416      -3.42286325        0      -0.80080038       0.93685502      -0.23722681
H        5.33360624       3.57181811      -1.71259320        0      -0.82913315       0.00412390       0.43235469
C       -3.41220593      -1.40147686       1.27721584        1       3.64945030      -2.78991580       1.10049605
O       -2.92165089      -1.47329795       2.67879891        1      -1.29563713       1.30749965      -1.88954437
C       -2.61571789      -2.75121093       2.98010492        1       1.57911158       1.89584827       2.23955846
O       -3.01706386      -3.61698890       2.14714384        1      -0.69072986      -0.25397944      -3.78819942
C       -2.94653201      -2.85366082       0.89804888        1      -0.89986300      -0.97384322      -0.87869823
H       -4.42421579      -1.24309289       1.20551991        1      -2.04793382       0.49392116       0.18089738
H       -2.80409384      -0.83304894       0.58278483        1      -0.09203994       1.01275849       0.61495090
O       -1.86870396      -2.94726801       3.88132596        1       0.15370536      -0.54814321       1.06894863
H       -3.50762296      -3.30938387       0.07090886        1      -0.52432150      -0.18123341       0.68003809
H       -1.93009996      -2.85789800       0.47551787        1       0.16825825       0.03708784       0.67155337
25
Properties=species:S:1:pos:R:3:molID:I:1:forces:R:3 Nmols=2 Comp=DMC(1):PC(1) energy=-1237.2283935546875 pbc="F F F"
C        2.67575073       2.86108518      -2.86082530        0      -1.16857874      -1.91994190       1.97701561
O        2.76785755       3.16294599      -1.37367737        0       2.82458448       3.33074927      -4.14567709
C        2.53783751       2.18929100      -0.59767431        0      -0.69747776       2.30274248       5.55136871
O        1.93164957       1.26053202      -1.20610726        0      -1.44700074      -3.45229268      -2.53727007
C        1.75701964       1.53768110      -2.68214726        0       1.59473395       0.74868822       1.82773125
C        1.82226360       3.92414308      -3.45830131        0      -0.52942717       0.32381451      -1.25334823
H        3.62236261       2.79383111      -3.48461127        0      -0.37896645      -0.48813578       1.45500493
O        2.62325168       2.39863515       0.62851471        0       0.13750491      -1.71496701      -2.90100026
H        0.69594961       1.78663802      -2.79194736        0       0.34196508      -0.30390829      -0.30048290
H        2.12722850       0.64140809      -3.18146920        0      -0.25038785       0.35550380      -0.16771823
H        0.94558364       4.07772589      -2.83702040        0       0.09419179       0.70011598       0.28744882
H        2.44793057       4.83902597      -3.65341330        0      -1.04556048      -0.75204533       0.09418887
H        1.39495564       3.45968413      -4.37784052        0       0.52441943       0.86967683       0.11273885
C       -2.77969742      -2.77740502       1.95494866        1       1.49661207       0.18737990      -1.77634978
O       -3.66863132      -2.42830992       2.60583663        1      -2.76720142       1.31995308       1.38226748
O       -2.29131937      -2.42984796       0.79584169        1      -0.97636557       3.10836387      -3.42128849
O       -1.89286339      -3.66918087       2.21758556        1       1.79564726      -2.91315579       1.59936595
C       -2.91089439      -1.28356600       0.07705668        1       1.87158036      -1.11494160      -0.82305861
C       -2.05939937      -4.26767588       3.43624568        1       0.87751889      -3.61279964       0.97118020
H       -3.72709346      -1.70948493      -0.53036433        1       0.45178744       0.54105937       0.23128049
H       -3.16581345      -0.57542592       0.80696666        1      -0.95976567       0.95419502       0.91849059
H       -2.09199142      -0.74095094      -0.52423334        1      -1.14296293      -1.26112163       0.48261791
H       -1.32394242      -5.09556913       3.62502956        1      -0.16133708       0.58951312      -0.92704344
H       -1.93663037      -3.67549205       4.25493479        1       0.78601992       2.68606138       2.19703579
H       -2.99357438      -4.73741913       3.66374469        1      -1.27153373      -0.48450717      -0.83449829
27
Properties=species:S:1:pos:R:3:molID:I:1:forces:R:3 Nmols=2 Comp=DMC(1):EMC(1) energy=-1265.315185546875 pbc="F F F"
C       -2.03106403       0.65746909       0.26760513        0       0.88624293      -0.34743792      -0.13653529
O       -1.07807493       0.48504212       1.01702011        0      -2.00639725       0.77304691      -2.05241394
O       -3.26775193       0.23020512       0.42069915        0      -0.52583188      -0.28642690      -0.44839978
O       -2.21094799       1.20861411      -0.95951784        0       2.67768526       0.06211013      -0.47235173
C       -3.54576588      -0.43989488       1.59327912        0      -0.47974730       0.89782357       2.14484262
C       -0.96694797       1.71850216      -1.62740982        0      -2.62068534      -0.96867192      -0.27921748
C       -5.02091789      -0.62569290       1.77413309        0      -2.64466023      -3.47424889      -1.04352701
H       -3.05448604      -1.41090190       1.60176313        0       0.38236347       0.00446135       0.29146478
H       -3.22410202       0.31734413       2.37260509        0       0.08855182      -1.26487684       0.07374728
H       -0.72410798       2.40959311      -0.88021588        0       1.33582520       1.55014241       0.19184414
H       -0.25252098       0.92709315      -1.77050185        0       0.24301820      -0.28311288       0.10797717
H       -5.35431385      -1.19761384       2.70942616        0       1.01235008       0.84283155      -1.10472143
H       -5.65353584       0.21069811       1.69021618        0      -0.04134920       1.54094565       0.23932894
H       -5.48677492      -1.27245092       0.88484311        0       1.35967779       0.87862670       1.54898238
H       -1.31561697       2.06881022      -2.61999083        0       0.31595445       0.06730023       0.92823637
C        2.86216998      -0.54789591      -0.30648586        1      -0.98639619       2.71604466       0.02892947
O        2.04342008       0.15615812       0.27660215        1       0.90325522      -2.20145464       0.52709377
O        3.26260614      -0.10306588      -1.49444783        1       0.72976732      -1.08843493      -0.46267545
O        3.59369302      -1.61061084      -0.04163986        1       0.21699113       0.37522662       0.12434411
C        2.62956214       0.98352611      -2.09231687        1      -0.36600655       1.01553893      -0.15614331
C        3.55574894      -2.15067077       1.29780114        1      -1.42230070       0.83832699      -1.41527700
H        1.88944602       0.64559013      -2.80296278        1      -0.23973873      -0.29663888      -0.29307842
H        2.08495712       1.70345008      -1.42564690        1       0.85685152      -0.61894524      -0.17503786
H        3.46013594       1.43517017      -2.62836289        1      -0.23439693       0.50726247      -0.05343165
H        4.11010695      -3.05958986       1.20176017        1       0.89637810       0.03929538       0.61782122
H        3.79936910      -1.30624783       1.98418510        1       0.03080755      -1.20676732      -0.10936052
H        2.50926495      -2.46688581       1.28762710        1      -0.36820889      -0.07196735       1.37755871
40
Properties=species:S:1:pos:R:3:molID:I:1:forces:R:3 Nmols=4 Comp=EC(4) energy=-2248.019775390625 pbc="F F F"
C       -0.45859733       3.28287387      -3.49498057        0      -0.83069170       1.99719822      -2.47620249
O        0.88948870       3.79171300      -3.25429845        0      -2.65487528      -0.51233196       0.92600632
C        1.77967572       2.90106797      -3.77192235        0       0.76231158       3.83055043      -0.18547250
O        1.17627263       1.93414199      -4.35922432        0      -0.10993028      -1.98733616      -0.58320612
C       -0.21532533       1.93098700      -4.04651356        0      -0.22919440      -3.24339509       0.14862090
H       -1.27154136       3.41099501      -2.76392436        0       1.13770914      -0.05818957       0.43947166
H       -0.92158234       3.83359003      -4.43693542        0       1.00715923      -0.08972943       1.50043929
O        2.90443778       3.31073308      -3.80425644        0       0.08733034      -1.73279035      -0.24496017
H       -0.37066332       1.10437799      -3.21093941        0       0.02968864       1.16026306      -1.62072837
H       -0.76461333       1.62513399      -5.02565050        0       0.63744181       0.53946346       1.72360468
C       -3.80103922      -2.50376415       2.43770266        1      -0.87352979       0.50105917      -2.97320700
O       -3.38939834      -3.25377202       1.26028454        1       0.64639330      -0.70728153       0.64538383
C       -2.30445933      -3.99550915       1.61562252        1       3.01944518      -0.56799448      -2.59156394
O       -2.14457035      -4.05070019       2.94205546        1      -0.69155788       0.50483227      -0.37734616
C       -2.87330842      -2.91826797       3.46709847        1       1.35586643      -1.66016591       3.05552745
H       -3.50343823      -1.48718607       2.20085359        1      -0.73840898       0.60662580      -0.14745590
H       -4.90017223      -2.60740995       2.47806549        1       0.61530077       0.03228040       0.47137809
O       -1.42242634      -4.39646721       0.83060056        1      -3.36096597       0.99812961       2.29384375
H       -2.05277324      -2.11510110       3.58914661        1      -1.19769192      -0.97285867       0.78106451
H       -3.41370034      -3.34911704       4.41145039        1       1.25103712       1.25139225      -1.16815710
C        2.30157065       3.02082801      -0.87318546        2       1.45534849       0.55053186       0.09294367
O        1.55322373       4.09202099      -0.41163146        2      -0.90049422       0.38635850      -0.84575325
C        0.22185968       3.76526093      -0.52127045        2      -1.36350739       3.04593849       2.59976387
O        0.00528267       2.46501303      -0.45626047        2       3.06459618      -0.26524115      -2.04560041
C        1.41516268       1.88063395      -0.86391044        2      -3.88310575      -3.31216478       0.40168962
H        2.83828473       3.31009007      -1.79112947        2      -0.54381406      -0.23820037       0.26611948
H        3.08249879       2.85036993      -0.17078246        2       0.90847611      -0.10900402       0.77730131
O       -0.57856935       4.68077612      -0.37167346        2       1.07971239      -2.42588139      -0.90849614
H        1.33951473       1.28182793      -1.79590452        2      -0.22125280       1.10623395      -0.09174299
H        1.47189569       0.99151593      -0.16966246        2       0.56871229       1.35499108       0.12612963
C        0.88761669      -2.09321308       0.81132352        3      -3.72341776      -0.20868003      -1.44836020
O        0.03761967      -1.97608399       2.01637745        3      -0.00053144       2.36129212      -0.93526840
C        0.60278767      -2.53470492       3.05735755        3       0.42798051      -2.20757484       0.62263405
O        1.52326167      -3.40426898       2.49319744        3       0.07423115      -1.06905055       1.92154396
C        1.51099765      -3.45389700       1.07032657        3       0.29449117       2.98341775       1.91771698
H        0.08297767      -2.01841211      -0.05692146        3       1.48925829      -0.46628442       1.48310375
H        1.59659469      -1.32058406       0.56207752        3       0.15020010       0.42784178       0.75711370
O        0.34869966      -2.52002215       4.24030066        3       0.42195082       0.51415610      -2.50024462
H        1.02420068      -4.25862026       0.65650052        3      -0.94665956      -1.80690908      -0.61558962
H        2.53591371      -3.38821101       0.90628552        3       1.78498805      -0.51149333      -1.19204521
30
Properties=species:S:1:pos:R:3:molID:I:1:forces:R:3 Nmols=3 Comp=EC(3) energy=-1687.28515625 pbc="F F F"
C       -4.12463999      -1.38331330      -2.42669320        0      -0.05942285      -0.09414625       0.95211005
O       -4.85671186      -0.58527428      -3.29135799        0      -0.87226695       1.14046252      -0.67919767
C       -4.90107059      -1.11834621      -4.56758595        0      -0.99371547       0.64619619       1.12228346
O       -4.02001286      -2.08291125      -4.62866592        0       1.33028769      -0.84237891      -0.41996598
C       -3.24393392      -2.16244316      -3.42454815        0      -2.88390589      -0.92980289       1.00333738
H       -3.52626491      -0.84614927      -1.66835916        0      -0.07443550       0.36224955      -0.70462143
H       -4.85408068      -1.92120123      -1.77655911        0       0.36333948      -0.33669257      -0.66733813
O       -5.69529676      -0.78748024      -5.39322805        0       0.84904647      -0.19991219       0.48046446
H       -2.31512570      -1.72622728      -3.47138715        0       2.11846781       0.86858964      -0.68462938
H       -3.18651271      -3.17717123      -3.06380701        0       0.19713196      -0.59594214      -0.43901756
C        0.30978417      -0.65456825      -0.57457012        1       2.52535439      -0.85802788       0.87101847
O       -0.88102782      -1.13273120      -0.17320210        1      -2.67453957      -0.42662302       1.35921073
C       -1.14308679      -2.33998322      -0.65088713        1       1.47708917       0.68310052      -2.23296595
O       -0.15073483      -2.73469424      -1.49947405        1       2.03127480       0.63939047       0.84979784
C        0.98336518      -1.88646221      -1.22591114        1       0.66391301       0.72634029      -1.03423405
H        0.22791818       0.14389074      -1.23837507        1      -0.23570243       1.57171392      -1.00014508
H        0.85364717      -0.37587824       0.35009891        1       0.00391404       0.33215538      -0.45296562
O       -2.14108491      -2.93444228      -0.60166711        1      -2.03105211      -1.05819404       0.96778452
H        1.68404114      -1.63605428      -2.08693218        1      -1.56448591      -0.45435643       0.26015776
H        1.70171022      -2.23403931      -0.50286508        1      -0.17029227      -1.17412198       0.44891578
C        3.67231321       2.92746186       3.89800692        2      -0.45549840      -1.19395351       1.92953968
O        4.82196808       2.26200986       4.53771782        2      -2.75831008      -2.17351389      -0.72718608
C        5.47337103       3.08063078       5.26452112        2       3.21571302       2.09278488       0.90179729
O        5.27526140       4.36545181       4.83315992        2      -0.56547880      -0.49769068      -0.01721287
C        4.28790140       4.29067278       3.83464384        2      -0.93069923       2.02683091      -0.61377573
H        3.43658614       2.38041568       2.99494600        2       0.39738122       0.23962444      -0.32955262
H        2.68566012       2.82074285       4.53663397        2       1.89202476       0.34321475      -0.59301955
O        6.34440804       2.87332678       6.06447983        2      -1.12605286      -0.46950364      -0.30191398
H        4.68179321       4.43559790       2.83605695        2       0.59889615       0.10630915      -0.32594591
H        3.64824009       5.17260456       3.99479294        2      -0.26797584      -0.47410202       0.07726964
28
Properties=species:S:1:pos:R:3:molID:I:1:forces:R:3 Nmols=2 Comp=EMC(1):PC(1) energy=-1323.5267333984375 pbc="F F F"
C        1.72377765       3.32298040       1.23377502        0      -2.69046736      -2.46738195       1.35201561
O        2.63007474       3.96519041       1.53447902        0       3.87013006       1.82614434       1.03723907
O        1.29991972       2.14615750       1.84063101        0       0.07333899       1.14757538      -0.60242712
O        0.77926767       3.66562247       0.43865305        0      -2.37713981      -0.72358990      -1.61390913
C        1.90697467       1.75645757       3.04736710        0       0.50362176      -2.56715393      -0.41666126
C        0.88982570       4.74090958      -0.45231396        0       0.43304628       1.66797268       0.51205742
C        1.15173769       0.57867450       3.70658803        0      -1.10259104       0.00522614       0.98904920
H        2.79456258       1.18240547       2.76503110        0       0.71466112       0.55613667      -0.34103748
H        2.20889378       2.54168057       3.70765495        0      -0.32952195       0.73602039       0.35661754
H        0.10335267       4.74462366      -1.20242596        0      -0.38812780      -0.18976447       0.40448752
H        0.86104167       5.71037769       0.15870804        0       0.04892278      -1.05168319      -0.90489346
H        1.82548165       0.10581652       4.46028614        0      -0.48159415       0.34875298      -0.60003448
H        0.22868967       0.92526150       4.24658728        0       0.79957569      -0.15740332      -0.52756214
H        0.82980067      -0.20090248       2.97496009        0       0.37406838       0.73455620       0.36328089
H        1.80501771       4.65960073      -1.02614200        0       0.55207717       0.13459241      -0.00822178
C       -1.31142235      -4.00997543      -1.90670896        1      -0.34239560      -2.03626513      -0.89322937
O       -1.36890638      -2.83475542      -2.73198986        1      -1.83330321      -1.29656589       4.23153114
C       -1.54313231      -1.91736245      -1.71109498        1       4.09830952      -0.48872685      -1.01473629
O       -1.16352928      -2.32432938      -0.44027796        1      -2.52131343      -1.96884263      -0.53744900
C       -1.41685629      -3.77515841      -0.40252295        1       0.69577980       1.26193619       0.14684689
C       -2.38931227      -5.01158953      -2.23772907        1      -0.00111151      -1.01021981      -1.12244236
H       -0.30356833      -4.38847160      -2.05719805        1       0.28382272      -0.50620723      -0.64854181
O       -1.39821637      -0.80781245      -2.05047894        1      -1.23781157       3.00985551       0.16722471
H       -2.34512043      -4.16522455       0.13714604        1       0.84206253       1.33503389      -0.82288480
H       -0.57648534      -4.34543562       0.01129304        1      -0.02024084       0.66611511       0.55891991
H       -3.37616634      -4.65697241      -2.00140500        1      -0.23971951       0.42757231       0.13412029
H       -2.36349630      -5.22382641      -3.30567098        1      -0.04101161      -0.01991305      -0.07056403
H       -2.28031039      -5.97883224      -1.71653998        1       0.31693259       0.62622845      -0.12879491
46
Properties=species:S:1:pos:R:3:molID:I:1:forces:R:3 Nmols=3 Comp=DEC(2):EC(1) energy=-2083.961669921875 pbc="F F F"
C        1.12228513       2.57065392       3.05553150        0      -1.13572013      -2.44732046      -2.40274453
O        0.89510715       3.33680701       3.90915251        0       0.01139656       2.03831148       1.97801101
O        0.83131516       1.22789502       3.08354163        0       1.15901756       2.27589035       4.86606979
O        1.47916710       2.80396104       1.84003460        0       0.75343955      -0.23194849      -1.83217716
C        0.86742717       0.93730795       4.75010538        0      -0.94024527      -1.34721708      -3.52427077
C        1.98150611       4.01263905       1.23323762        0       0.14099193       0.50592983       2.98297620
C        0.80585617      -0.58874100       4.48594856        0       0.36301047       0.82420397       1.59663904
H        1.87435615       1.08331895       5.15053034        0      -0.36536711       1.08851945      -0.07851663
H       -0.02357686       1.61593997       5.10627460        0       1.74190390      -1.73390114      -0.31141919
C        0.86050314       4.98110104       1.04421353        0       0.27254903       1.49548864       0.32052943
H        2.59138203       4.60207987       2.06282258        0       0.08935326      -1.56633043      -1.55126166
H        2.49448419       3.56533098       0.39430356        0       0.18346822       0.81436354      -0.10106769
H        1.30257308       5.96039391       0.89348656        0       0.33650893       0.22245276       0.37335378
H        0.26657715       4.89897490       0.20957758        0      -1.25387347      -1.07688618      -2.08095551
H        0.17814614       5.04733515       1.87895453        0       0.13347113      -0.23871297       0.44784474
H        1.16012108      -1.13257897       5.37814569        0      -0.83814275       0.11829042      -0.12385631
H       -0.23201686      -0.73150504       4.21799374        0       0.21704078      -0.89881104      -0.25527886
H        1.59177709      -0.83813405       3.75746059        0      -0.86880267       0.15767755      -0.30387521
C       -3.41360188      -0.98489702      -1.42369044        1       0.02454269      -2.68917537       1.06096363
O       -4.55164003      -0.98675704      -1.68807948        1      -2.82238698      -0.65945721      -2.40155911
O       -2.50612378      -1.95843303      -1.43353546        1      -0.66311646      -1.12563968      -1.04722953
O       -2.91195083      -0.18129502      -0.62358844        1       3.31044030       3.19164777       2.60202169
C       -2.94922781      -3.16452909      -2.04602051        1      -1.54435921       0.81795382      -1.64904118
C       -3.65715981       0.89645898      -0.14776742        1       1.39659154      -0.33612847       3.67274618
C       -1.73851287      -4.02535009      -1.99297738        1       0.10083365      -2.60376334      -0.23171446
H       -3.87312388      -3.66752005      -1.60215044        1       1.16322362       0.78293300       0.16499025
H       -3.32941294      -2.82905102      -3.10723448        1       0.92912340      -0.88427937       1.20562887
C       -2.66523385       1.63324594       0.88361657        1      -2.85150218       0.59424299      -0.09338164
H       -3.91746187       1.44909501      -0.97636640        1      -0.81370687       1.85708439      -1.41907072
H       -4.52412081       0.52065700       0.48019758        1       0.62498486       0.43930960      -0.72751069
H       -3.43014789       2.24482489       1.47997653        1       1.53757930      -0.67727804      -0.47063273
H       -2.09312892       0.97019100       1.50268054        1      -0.39325041      -0.76548946       0.37222540
H       -1.89375591       2.26521993       0.49221757        1      -0.16126925       0.52160704      -0.88823485
H       -2.09110880      -5.09659481      -2.20086837        1       0.76277423       1.36305821      -0.35963619
H       -0.93603188      -3.68115592      -2.69023538        1      -0.72230256      -0.46860296       0.60583335
H       -1.35541391      -4.14123487      -0.96314341        1       0.04985559       0.61947858      -0.38233590
C        2.30126524      -3.24978709      -3.27970552        2      -0.68867975       3.55448842       1.54232144
O        3.00183821      -1.84303808      -3.55832553        2      -0.26678628      -3.21303296      -0.46533358
C        2.96121526      -1.04488206      -2.52093434        2      -2.71712708      -2.16084576       0.31656688
O        2.09142613      -1.54451299      -1.57714641        2       0.55730349      -1.21452582       0.15962148
C        1.89760613      -2.98708797      -1.72157145        2       2.36179757       0.58624673      -0.59423316
H        1.30514014      -3.13057709      -3.81170249        2       1.44342518      -0.73376328      -0.06076902
H        3.03420115      -4.06249380      -3.52643442        2      -0.94328403       0.85693717       0.22533163
O        3.41751218       0.01574698      -2.43227243        2       1.45712137       2.21689320       0.13287729
H        0.90290713      -3.12530494      -1.34257340        2      -0.40285161      -0.46285748      -0.48916703
H        2.63837409      -3.52872992      -1.04472041        2      -0.72897422       0.59295750      -0.78127861
31
Properties=species:S:1:pos:R:3:molID:I:1:forces:R:3 Nmols=2 Comp=DEC(1):PC(1) energy=-1410.790771484375 pbc="F F F"
C       -2.17536664      -0.12906668      -1.11784172        0       0.41355491       0.64425188      -1.02804315
O       -1.34424663      -0.81957370      -0.64080775        0       0.97731578      -1.17469096       0.98306006
O       -3.24678564       0.35303932      -0.51759273        0      -0.43039373       0.29172584       0.68131614
O       -2.10225153       0.32426533      -2.37789369        0      -2.09741163       1.12739706       0.54523170
C       -3.46582150       0.10677933       0.88375926        0      -0.57995188      -0.71562034       0.31752086