77
Properties=species:S:1:pos:R:3:molID:I:1:forces:R:3 Nmols=6 Comp=DEC(1):DMC(2):EC(2):EMC(1) energy=-3736.56005859375 pbc="F F F"
C       -1.83385191       1.12909904      -5.27613973        0       0.87295663       0.63868380       5.33702993
O       -1.84544096       1.46962502      -4.08675813        0      -0.98938298      -0.07505101      -1.11726630
O       -0.81386599       1.47580007      -5.98193979        0       1.89521265       0.24172544      -2.92755699
O       -2.59086690       0.21176207      -5.77056789        0      -0.29536366      -0.20098746      -1.87021041
C        0.20941499       2.36939910      -5.45872688        0      -2.99689841       2.38789892      -1.00810087
C       -3.81860003      -0.19891795      -5.26081276        0      -2.68595767       2.62452364      -3.34671044
H        0.80830398       2.90585497      -6.22674083        0      -0.73912650      -0.55838311      -0.17611551
H       -0.43291500       3.20440104      -4.97875213        0       1.38487852      -1.05139565      -0.02380025
H        0.91850897       1.85523894      -4.91552973        0       0.90752685      -1.10213113       1.60092080
H       -4.38113103      -0.59572596      -6.14403677        0       0.60230082       0.28735635       0.17722988
H       -3.74950680      -0.95236996      -4.64341974        0       1.02251565      -3.99792743       3.47878885
H       -4.57596097       0.47631904      -4.82629776        0       1.00944209       0.82745421      -0.11989832
C        0.93029276      -1.72367896       4.76980173        1      -1.65747869       2.84116173      -0.14888173
O        1.70018986      -2.79686798       5.02000247        1       1.13500726      -1.15501189       0.41906634
C        2.70069674      -2.49618496       5.82866775        1       1.32879329      -0.30922800       2.50391960
O        2.56099371      -1.10588099       6.34901153        1      -1.15376711      -2.31899095      -1.81692576
C        1.28101782      -0.60152198       5.83027040        1       0.19872701      -1.09749460       0.46856868
H        1.20347885      -1.30759300       3.78276264        1      -0.37787783      -0.30311382       0.11302161
H       -0.15098518      -1.93216814       4.81819736        1       0.37190127      -0.27200162      -0.19420861
O        3.49970678      -3.34180202       6.20364343        1      -1.76018810       3.06394482      -0.86163390
H        1.38214985       0.33114596       5.23239957        1       0.30284691      -0.35324407       0.98604780
H        0.49058083      -0.50950404       6.69036447        1       1.55502081      -0.14578956      -1.43432212
C       -4.60754379       2.63073434      -1.18642231        2      -0.91870952      -1.04735947       1.10886955
O       -3.86599859       3.56218614      -0.95730635        2      -1.69715691      -2.29088354      -0.49314755
O       -5.11451897       1.62768712      -0.18845236        2      -0.16570902       2.29274440      -3.95406628
O       -5.24712166       2.21790232      -2.31521937        2       1.60970140       0.79877663       0.44032478
C       -4.60003265       1.74823417       1.06525466        2      -0.69538403       0.72512525       1.05260062
C       -5.03925499       2.96900930      -3.51630327        2      -1.05945349       1.25065529      -0.73502493
H       -4.77795299       0.83546521       1.58654371        2      -0.27172381      -0.48269951       0.49314862
H       -3.59713587       1.89867629       0.88943664        2       2.94945145       0.28120136       0.39944008
H       -4.96085295       2.62628331       1.62135462        2      -0.29372123      -0.28547198      -0.04202867
H       -5.65068277       2.53123226      -4.35545226        2       0.26663601       0.32243079       1.31823087
H       -5.26330265       4.03460016      -3.28051325        2      -0.82555425      -0.47990733      -0.04437280
H       -4.08317455       3.16231622      -3.97079154        2       1.11347485      -1.10633111       0.45175743
C        3.70112078       3.70429236       0.08967109        3       6.05802345       0.18641785      -1.52656674
O        5.03244584       3.73635251      -0.11905291        3      -6.76377821      -1.26029086       1.33762491
O        2.81571381       2.67851359       0.19525609        3       2.09727407       0.64133751      -0.72200489
O        3.08117788       4.85766751       0.07332309        3      -1.55953145      -0.23896098       1.16588974
C        3.26174681       1.36178142      -0.17558291        3       0.49181730      -0.44278502      -0.64529401
C        3.68094962       6.17464835       0.18470508        3       1.88017130      -2.99141312       2.35207081
C        2.17372887       0.36188954       0.14077209        3      -0.93987340      -2.28057718       0.79391873
H        3.70850890       1.24178654      -1.19944086        3      -1.07276297       0.84231776       0.35719556
H        4.13883154       1.14406353       0.45944009        3      -1.22510219       1.11788702      -1.33533347
H        4.36655466       6.29060132       1.11052105        3      -1.10940802      -0.33850005      -1.51859140
H        4.13625376       6.21272236      -0.72750893        3       2.15041280       1.01052201      -2.26963782
H        2.44238679      -0.67672247      -0.00996991        3       0.98830068      -0.22279322      -0.95093054
H        2.12067168       0.27920658       1.24076614        3      -1.23762190       1.32480550      -0.55347204
H        1.15490680       0.20842052      -0.37262192        3       1.33843803       2.00400877       0.68657511
H        2.87197583       6.77449852       0.18342509        3      -2.44580698       2.10310626       0.51621699
C        5.10740771      -0.50345900       1.02780885        4      -0.38304114       1.66530228      -4.86791563
O        4.35471501       0.31792398       1.84430677        4      -0.20971948       2.15413046       2.36676979
C        3.66636004      -0.37496701       2.74321681        4      -0.04152668      -0.78593493       2.47759199
O        4.15639367      -1.62193796       2.71895176        4       1.66667044      -1.12678981      -0.44241834
C        5.33145490      -1.71580001       1.74970180        4       0.64378822       0.22149715       3.08977151
H        4.34884992      -0.76027503       0.20811480        4       1.60055137      -0.13986009       0.31099147
H        5.97438874       0.04610899       0.46399480        4      -1.32648838      -0.89248359       1.41139817
O        2.83755984       0.03950299       3.53108698        4       1.59076989      -0.69931024      -1.97768664
H        5.30468001      -2.59577712       1.21560675        4      -0.92099190      -1.93174708      -0.99460435
H        6.40798774      -1.73028704       2.11489779        4      -1.21109390       0.13138276       0.90430689
C       -2.68539130      -3.23184506      -1.38702589        5       0.35152322      -4.91549921       0.39223373
O       -2.17742836      -2.62260405      -2.23395889        5       0.02437860       1.56962574      -2.83440638
O       -2.49298536      -3.04796116      -0.13055485        5      -1.09679818       0.43229127       2.05526447
O       -3.14275038      -4.62926118      -1.48948389        5      -1.37973869       3.04195595       2.08453059
C       -2.24853050      -1.72193925       0.28131015        5      -0.30219397       1.78072047       2.38051033
C       -3.28168141      -5.30291716      -2.69633477        5       3.19147611       1.79475760      -2.23795485
C       -2.26212441      -1.61312525       1.89669413        5      -1.44334817       0.21997872       1.21453869
H       -1.23248433      -1.42077510      -0.08426886        5      -0.80502009       0.02209291       0.29904613
H       -3.07519137      -1.00592212      -0.00700385        5       0.80315363      -0.87490070      -0.39852741
C       -3.71914732      -6.73270623      -2.45487183        5      -6.75358868       1.71293044      -2.06743145
H       -3.72624027      -4.69143121      -3.60921686        5      -0.38476157      -1.22211945       1.87969851
H       -2.20245134      -5.10441129      -2.97845786        5      -0.31847852      -1.94144201      -0.90076756
H       -4.31953823      -7.13499419      -3.40754193        5       2.19586539       0.50637615       1.34382272
H       -3.22057950      -7.50558822      -1.96553295        5       1.03913510      -0.16758162       0.50286961
H       -4.82099544      -6.49050919      -1.89762276        5       2.76778650      -0.84170973      -0.21275622
H       -2.01573240      -0.65080420       2.42909104        5      -0.08001471      -0.34177458      -1.51769352
H       -3.19746839      -1.92080514       2.54010922        5       1.11425471       0.25569555      -2.14130712
H       -1.52192747      -2.27279417       2.24705607        5       1.07395840      -1.03294826       0.15777117
77
Properties=species:S:1:pos:R:3:molID:I:1:forces:R:3 Nmols=6 Comp=DEC(1):DMC(2):EC(2):EMC(1) energy=-3736.89013671875 pbc="F F F"
C       -1.89711549       1.16727947      -5.46392165        0       0.87314939       0.63922822       5.33807945
O       -1.90870454       1.50780545      -4.27454005        0      -0.99546933      -0.07079977      -1.11768150
O       -0.87712957       1.51398050      -6.16972171        0       1.89531183       0.24178517      -2.92770457
O       -2.65413048       0.24994250      -5.95834981        0      -0.29142261      -0.20168692      -1.87256193
C        0.14615141       2.40757953      -5.64650880        0      -2.99688983       2.38789701      -1.00812185
C       -3.88186361      -0.16073752      -5.44859468        0      -2.68819785       2.62523746      -3.34029222
H        0.74504040       2.94403540      -6.41452275        0      -0.73912489      -0.55838048      -0.17611647
H       -0.49617858       3.24258147      -5.16653405        0       1.38488853      -1.05138481      -0.02380264
H        0.85524539       1.89341937      -5.10331165        0       0.90752810      -1.10213041       1.60092306
H       -4.44439461      -0.55754553      -6.33181869        0       0.60139996       0.28664550       0.17422092
H       -3.81277038      -0.91418953      -4.83120166        0       1.02226806      -3.99429417       3.47620678
H       -4.63922455       0.51449947      -5.01407968        0       1.02904189       0.79242903      -0.12574288
C        1.00515537      -1.79498071       4.97058436        1      -1.66661584       2.81194592      -0.12140721
O        1.77505247      -2.86816973       5.22078510        1       1.13534641      -1.16298199       0.42754945
C        2.77555935      -2.56748671       6.02945038        1       1.32935977      -0.31142956       2.50273705
O        2.63585632      -1.17718274       6.54979416        1      -1.14290047      -2.33128405      -1.80653930
C        1.35588043      -0.67282373       6.03105303        1       0.20075345      -1.09947264       0.48695862
H        1.27834146      -1.37889475       3.98354527        1      -0.33011520      -0.26631877       0.03207755
H       -0.07612257      -2.00346989       5.01897999        1       0.36070240      -0.27876633      -0.18387415
O        3.57456939      -3.41310377       6.40442606        1      -1.76050186       3.06415653      -0.86152405
H        1.45701246       0.25984421       5.43318220        1       0.27347779      -0.30173928       1.00645494
H        0.56544344      -0.58080579       6.89114710        1       1.54786503      -0.14846765      -1.42448497
C       -4.77557771       2.71802684      -1.22835401        2      -0.91868240      -1.04755473       1.10936129
O       -4.03403251       3.64947864      -0.99923805        2      -1.69719481      -2.29093218      -0.49317393
O       -5.28255289       1.71497962      -0.23038406        2      -0.16569567       2.29274774      -3.95403004
O       -5.41515558       2.30519482      -2.35715107        2       1.61026525       0.79859018       0.44312072
C       -4.76806657       1.83552667       1.02332296        2      -0.69539267       0.72512436       1.05262280
C       -5.20728891       3.05630180      -3.55823497        2      -1.06081963       1.25490510      -0.73242140
H       -4.94598691       0.92275771       1.54461201        2      -0.27167639      -0.48274693       0.49311215
H       -3.76516979       1.98596879       0.84750494        2       2.94947100       0.28120467       0.39943445
H       -5.12888687       2.71357581       1.57942292        2      -0.29372191      -0.28546643      -0.04202090
H       -5.81871669       2.61852476      -4.39738396        2       0.24524420       0.35235634       1.31843162
H       -5.43133657       4.12189266      -3.32244495        2      -0.82294637      -0.47579098      -0.04109138
H       -4.25120847       3.24960872      -4.01272324        2       1.11866617      -1.11698139       0.44924921
C        3.82155395       3.82044001       0.09169893        3       6.06081057       0.19921023      -1.52801025
O        5.15287901       3.85250016      -0.11702507        3      -6.76612091      -1.26039672       1.33792412
O        2.93614698       2.79466124       0.19728393        3       1.94053864       0.82666481      -0.71378005
O        3.20161105       4.97381516       0.07535093        3      -1.55851781      -0.23900366       1.16605461
C        3.38217998       1.47792907      -0.17355507        3       0.69248009      -0.68958378      -0.35413143
C        3.80138279       6.29079600       0.18673292        3       1.88000572      -2.99184585       2.35204077
C        2.29416204       0.47803719       0.14279993        3      -1.04112339      -2.31983256       0.74827933
H        3.82894207       1.35793419      -1.19741302        3      -1.02297056       0.79410410       0.44974518
H        4.25926471       1.26021118       0.46146793        3      -0.90035313       0.62514210      -0.55076683
H        4.48698783       6.40674897       1.11254889        3      -1.10937142      -0.33845705      -1.51856196
H        4.25668693       6.32887001      -0.72548109        3       2.15044951       1.01059091      -2.26966906
H        2.56281996      -0.56057482      -0.00794207        3       1.09075630      -0.19764936      -0.92413116
H        2.24110485       0.39535423       1.24279398        3      -1.00704622       1.22167110      -0.41322148
H        1.27533997       0.32456817      -0.37059408        3       1.31862140       1.98366964       0.66735560
H        2.99240900       6.89064617       0.18545293        3      -2.44581962       2.10322690       0.51622343
C        5.25752347      -0.52617391       1.10819517        4      -0.34713709       1.61801863      -4.53288126
O        4.50483077       0.29520907       1.92469309        4      -0.62555063       2.51567173       1.13317943
C        3.81647580      -0.39768192       2.82360313        4       0.04542482      -0.44978535       1.99998593
O        4.30650943      -1.64465287       2.79933808        4       1.64589691      -1.31751120      -0.38632786
C        5.48157066      -1.73851492       1.83008812        4       0.63578558       0.13869387       3.16324902
H        4.49896568      -0.78298994       0.28850112        4       1.26752341       0.10028047       0.18639398
H        6.12450450       0.02339408       0.54438112        4      -1.30780387      -0.80707872       1.39308321
O        2.98767560       0.01678808       3.61147330        4       1.57998824      -0.70723152      -1.89503348
H        5.45479577      -2.61849203       1.29599307        4      -0.91206700      -1.93331730      -0.98417389
H        6.55810350      -1.75300195       2.19528411        4      -1.21177101       0.13910773       0.89922678
C       -2.78287020      -3.35980008      -1.42325358        5       0.35152295      -4.91549873       0.39223540
O       -2.27490726      -2.75055907      -2.27018658        5       0.02437848       1.56962490      -2.83440804
O       -2.59046426      -3.17591618      -0.16678254        5      -1.09680223       0.43228436       2.05526400
O       -3.24022928      -4.75721620      -1.52571158        5      -1.37973940       3.04195452       2.08452988
C       -2.34600940      -1.84989427       0.24508246        5      -0.30220020       1.78071749       2.38051510
C       -3.37916031      -5.43087218      -2.73256246        5       3.19147682       1.79475975      -2.23795438
C       -2.35960331      -1.74108027       1.86046644        5      -1.44335270       0.21998402       1.21453500
H       -1.32996323      -1.54873012      -0.12049655        5      -0.80296797       0.02350484       0.29879326
H       -3.17267027      -1.13387714      -0.04323154        5       0.80311704      -0.87485558      -0.39848608
C       -3.81662622      -6.86066125      -2.49109952        5      -6.75358820       1.71293402      -2.06743312
H       -3.82371917      -4.81938623      -3.64544455        5      -0.38476193      -1.22212029       1.87969863
H       -2.29993024      -5.23236631      -3.01468555        5      -0.31847978      -1.94144416      -0.90076828
H       -4.41701713      -7.26294921      -3.44376962        5       2.19586611       0.50637889       1.34382272
H       -3.31805840      -7.63354324      -2.00176064        5       1.03913808      -0.16758496       0.50287181
H       -4.91847434      -6.61846421      -1.93385045        5       2.76778412      -0.84170961      -0.21275568
H       -2.11321130      -0.77875922       2.39286335        5      -0.08001456      -0.34177697      -1.51769292
H       -3.29494729      -2.04876016       2.50388153        5       1.11425722       0.25569409      -2.14130688
H       -1.61940637      -2.40074919       2.21082838        5       1.07436609      -1.03284740       0.15853968
77
Properties=species:S:1:pos:R:3:molID:I:1:forces:R:3 Nmols=6 Comp=DEC(1):DMC(2):EC(2):EMC(1) energy=-3737.02392578125 pbc="F F F"
C       -1.96262001       1.20681233      -5.65835523        0       0.87337643       0.63941312       5.33818150
O       -1.97420906       1.54733831      -4.46897363        0      -0.99594700      -0.07047582      -1.11768806
O       -0.94263409       1.55351336      -6.36415529        0       1.89529181       0.24180603      -2.92769027
O       -2.71963500       0.28947536      -6.15278339        0      -0.28976369      -0.20218307      -1.87361622
C        0.08064689       2.44711239      -5.84094238        0      -2.99690151       2.38788843      -1.00812411
C       -3.94736813      -0.12120466      -5.64302826        0      -2.68815565       2.62447596      -3.33780527
H        0.67953588       2.98356826      -6.60895633        0      -0.73912495      -0.55838042      -0.17611641
H       -0.56168310       3.28211433      -5.36096763        0       1.38489032      -1.05138242      -0.02380219
H        0.78974087       1.93295223      -5.29774523        0       0.90752953      -1.10212994       1.60092402
H       -4.50989913      -0.51801267      -6.52625227        0       0.60087729       0.28736183       0.17425448
H       -3.87827490      -0.87465667      -5.02563524        0       1.02113342      -3.99055624       3.47455645
H       -4.70472907       0.55403233      -5.20851326        0       1.04681206       0.76106596      -0.13503540
C        1.08266978      -1.86880812       5.17847916        1      -1.66106212       2.79937506      -0.12327957
O        1.85256688      -2.94199714       5.42867990        1       1.13803589      -1.17706037       0.44043711
C        2.85307376      -2.64131412       6.23734518        1       1.33031440      -0.31292886       2.50226307
O        2.71337073      -1.25101015       6.75768896        1      -1.13026953      -2.34572601      -1.79591465
C        1.43339484      -0.74665114       6.23894783        1       0.21103227      -1.07706547       0.48629713
H        1.35585587      -1.45272216       4.19144007        1      -0.29782465      -0.23285484      -0.02679729
H        0.00139184      -2.07729730       5.22687479        1       0.35416365      -0.28463191      -0.17890382
O        3.65208380      -3.48693118       6.61232086        1      -1.76086044       3.06435299      -0.86152995
H        1.53452687       0.18601680       5.64107700        1       0.26413530      -0.27462846       1.01163340
H        0.64295785      -0.65463320       7.09904190        1       1.54365170      -0.14867267      -1.41946220
C       -4.94956378       2.80841144      -1.27177102        2      -0.91863000      -1.04766810       1.10977781
O       -4.20801858       3.73986324      -1.04265506        2      -1.69721615      -2.29095793      -0.49319318
O       -5.45653896       1.80536422      -0.27380107        2      -0.16568840       2.29274678      -3.95400572
O       -5.58914165       2.39557942      -2.40056808        2       1.61046398       0.79862499       0.44410825
C       -4.94205264       1.92591127       0.97990595        2      -0.69536006       0.72512895       1.05264091
C       -5.38127498       3.14668640      -3.60165198        2      -1.06072092       1.25311375      -0.73386979
H       -5.11997298       1.01314231       1.50119500        2      -0.27167603      -0.48275602       0.49312320
H       -3.93915586       2.07635339       0.80408793        2       2.94944859       0.28120342       0.39943504
H       -5.30287294       2.80396041       1.53600591        2      -0.29372156      -0.28545678      -0.04200846
H       -5.99270276       2.70890936      -4.44080097        2       0.22633833       0.38215524       1.32742953
H       -5.60532264       4.21227726      -3.36586196        2      -0.82222140      -0.47528809      -0.04047054
H       -4.42519454       3.33999332      -4.05614025        2       1.11896539      -1.11774898       0.44899514
C        3.94625314       3.94070187       0.09379861        3       6.04642773       0.21527165      -1.52756107
O        5.27757820       3.97276202      -0.11492539        3      -6.76798487      -1.26066363       1.33804739
O        3.06084617       2.91492310       0.19938361        3       1.86390769       0.92984915      -0.73593104
O        3.32631024       5.09407702       0.07745061        3      -1.55781436      -0.23520875       1.16574085
C        3.50687917       1.59819093      -0.17145539        3       0.77053750      -0.67080188      -0.31048235
C        3.92608198       6.41105786       0.18883260        3       1.87998867      -2.99178076       2.35204268
C        2.41886123       0.59829905       0.14489961        3      -1.21783018      -2.34152532       0.70689046
H        3.95364126       1.47819605      -1.19531334        3      -1.01412284       0.73896682       0.46430916
H        4.38396390       1.38047304       0.46356761        3      -0.61635214       0.22512296       0.00856435
H        4.61168702       6.52701083       1.11464857        3      -1.10933828      -0.33842146      -1.51853371
H        4.38138612       6.44913187      -0.72338141        3       2.15044975       1.01060116      -2.26967239
H        2.68751915      -0.44031296      -0.00584239        3       1.21859741      -0.21942198      -0.87905610
H        2.36580404       0.51561609       1.24489366        3      -0.82161522       1.09481597      -0.24962187
H        1.40003916       0.44483003      -0.36849440        3       1.29015899       1.97193670       0.64881611
H        3.11710819       7.01090803       0.18755261        3      -2.44582367       2.10326529       0.51622558
C        5.41295666      -0.54969343       1.19142895        4      -0.42323720       1.77703416      -4.46962070
O        4.66026396       0.27168955       2.00792687        4      -0.60661882       2.69359303       0.54407841
C        3.97190899      -0.42120144       2.90683691        4      -0.17790878      -0.23714378       1.77224112
O        4.46194262      -1.66817239       2.88257186        4       1.64586055      -1.38918257      -0.36036110
C        5.63700385      -1.76203444       1.91332190        4       0.62798142       0.09457421       3.21098280
H        4.65439887      -0.80650946       0.37173490        4       1.09044886       0.18030123       0.12256038
H        6.27993769      -0.00012544       0.62761490        4      -1.28352392      -0.79803789       1.39065719
O        3.14310879      -0.00673144       3.69470708        4       1.58649421      -0.76830518      -1.87315583
H        5.61022896      -2.64201155       1.37922685        4      -0.90762186      -1.93910849      -0.97916281
H        6.71353669      -1.77652147       2.27851789        4      -1.21237755       0.14411011       0.89725971
C       -2.88380203      -3.49228756      -1.46076453        5       0.35151753      -4.91550589       0.39224184
O       -2.37583909      -2.88304655      -2.30769753        5       0.02438247       1.56962919      -2.83441496
O       -2.69139609      -3.30840366      -0.20429349        5      -1.09680367       0.43228340       2.05525875
O       -3.34116111      -4.88970368      -1.56322253        5      -1.37973726       3.04196167       2.08453465
C       -2.44694123      -1.98238175       0.20757151        5      -0.30220282       1.78071404       2.38051629
C       -3.48009214      -5.56335966      -2.77007341        5       3.19147539       1.79475808      -2.23795533
C       -2.46053514      -1.87356775       1.82295549        5      -1.44335508       0.21998280       1.21453905
H       -1.43089506      -1.68121760      -0.15800750        5      -0.80296403       0.02350666       0.29879373
H       -3.27360210      -1.26636462      -0.08074249        5       0.80311644      -0.87485528      -0.39848289
C       -3.91755805      -6.99314873      -2.52861047        5      -6.75359344       1.71293461      -2.06743431
H       -3.92465100      -4.95187371      -3.68295550        5      -0.38476130      -1.22212052       1.87969971
H       -2.40086207      -5.36485379      -3.05219650        5      -0.31847829      -1.94144440      -0.90076959
H       -4.51794896      -7.39543669      -3.48128057        5       2.19586754       0.50637674       1.34382260
H       -3.41899023      -7.76603072      -2.03927159        5       1.03913653      -0.16758424       0.50287163
H       -5.01940617      -6.75095169      -1.97136140        5       2.76778936      -0.84170902      -0.21275526
H       -2.21414313      -0.91124670       2.35535240        5      -0.08001482      -0.34177685      -1.51769531
H       -3.39587912      -2.18124764       2.46637058        5       1.11425829       0.25569621      -2.14130974
H       -1.72033820      -2.53323667       2.17331743        5       1.07436728      -1.03284752       0.15853894
77
Properties=species:S:1:pos:R:3:molID:I:1:forces:R:3 Nmols=6 Comp=DEC(1):DMC(2):EC(2):EMC(1) energy=-3737.094970703125 pbc="F F F"
C       -2.03044485       1.24774554      -5.85967609        0       0.87345004       0.63947940       5.33822346
O       -2.04203390       1.58827152      -4.67029449        0      -0.99594522      -0.07047766      -1.11770952
O       -1.01045893       1.59444657      -6.56547615        0       1.89528108       0.24181497      -2.92767787
O       -2.78745984       0.33040857      -6.35410425        0      -0.28984952      -0.20250571      -1.87369347
C        0.01282205       2.48804560      -6.04226324        0      -2.99690604       2.38787866      -1.00812387
C       -4.01519297      -0.08027145      -5.84434912        0      -2.68661284       2.62328744      -3.33761263
H        0.61171104       3.02450147      -6.81027719        0      -0.73912448      -0.55838013      -0.17611629
H       -0.62950794       3.32304754      -5.56228849        0       1.38488925      -1.05138230      -0.02380186
H        0.72191603       1.97388544      -5.49906609        0       0.90752721      -1.10212743       1.60092151
H       -4.57772397      -0.47707946      -6.72757313        0       0.60077935       0.28827277       0.17554939
H       -3.94609974      -0.83372346      -5.22695610        0       1.02013958      -3.98805380       3.47339368
H       -4.77255391       0.59496554      -5.40983412        0       1.03926897       0.77200764      -0.13181287
C        1.16292992      -1.94525067       5.39373806        1      -1.65279484       2.79897261      -0.14148521
O        1.93282702      -3.01843969       5.64393880        1       1.14327168      -1.19549322       0.45665282
C        2.93333390      -2.71775667       6.45260408        1       1.33080316      -0.31348896       2.50216937
O        2.79363087      -1.32745270       6.97294786        1      -1.12316561      -2.35385108      -1.79085553
C        1.51365498      -0.82309369       6.45420673        1       0.21676970      -1.05939913       0.49461794
H        1.43611601      -1.52916471       4.40669897        1      -0.31279358      -0.23077933      -0.05536187
H        0.08165198      -2.15373985       5.44213369        1       0.35117280      -0.28851497      -0.17667477
O        3.73234394      -3.56337373       6.82757976        1      -1.76099479       3.06442356      -0.86155081
H        1.61478701       0.10957425       5.85633590        1       0.27033350      -0.26056200       1.00255668
H        0.72321799      -0.73107575       7.31430080        1       1.54129398      -0.14934805      -1.41661048
C       -5.12971282       2.90199766      -1.31672595        2      -0.91866583      -1.04773641       1.10984337
O       -4.38816762       3.83344946      -1.08760999        2      -1.69720757      -2.29094982      -0.49319777
O       -5.63668800       1.89895044      -0.31875600        2      -0.16568446       2.29273868      -3.95398474
O       -5.76929069       2.48916564      -2.44552301        2       1.61051500       0.79885817       0.44402194
C       -5.12220168       2.01949749       0.93495102        2      -0.69539070       0.72513551       1.05265164